# Data from DA_130130_E2.h5 stim 5
# Ratiometric estimator mono-exponential fit
# Fitted model Ca = baseline+delta*exp(-(t-t0)/tau)
# nobs = 156
# number of degrees of freedom = 153
# baseline length = 7
# fit started from point 51
# estimated baseline 0.0352163 and standard error 0.000555117
# estimated delta 0.0216578 and standard error 0.000678764
# estimated tau 5.70377 and standard error 0.462412
# residual sum of squares: 152.695
# RSS per degree of freedom: 0.998005
# Probability of observing a larger of equal RSS per DOF under the null hypothesis: 0.491756

# rss per degree of freedom: 0.998005

# Time    Ca  Prediction  Residual
2370.01 0.0379101 0.0352163 1.30226
2370.11 0.0357393 0.0352163 0.257228
2370.21 0.0360671 0.0352163 0.416422
2370.31 0.0351717 0.0352163 -0.0219499
2370.41 0.0334425 0.0352163 -0.882707
2370.51 0.0328669 0.0352163 -1.17931
2370.61 0.0344744 0.0352163 -0.37267

2375.11 0.0575927 0.0568742 0.306797
2375.21 0.059058 0.0564978 1.0741
2375.31 0.0550155 0.0561279 -0.478147
2375.41 0.0594569 0.0557645 1.52099
2375.51 0.0571958 0.0554074 0.758887
2375.61 0.0523702 0.0550564 -1.15841
2375.71 0.0530175 0.0547116 -0.733485
2375.81 0.0605501 0.0543728 2.57507
2375.91 0.0537998 0.0540399 -0.102547
2376.01 0.055232 0.0537127 0.632097
2376.11 0.0548303 0.0533913 0.622349
2376.21 0.0527868 0.0530754 -0.124873
2376.31 0.0519617 0.052765 -0.351112
2376.41 0.0552405 0.05246 1.19884
2376.51 0.0527889 0.0521604 0.268701
2376.61 0.0499718 0.0518659 -0.834519
2376.71 0.050795 0.0515765 -0.344788
2376.81 0.0520769 0.0512922 0.344086
2376.91 0.0519183 0.0510128 0.395296
2377.01 0.0467266 0.0507383 -1.79516
2377.11 0.0499629 0.0504685 -0.222433
2377.21 0.0498317 0.0502034 -0.163762
2377.31 0.0448986 0.049943 -2.29674
2377.41 0.0505609 0.049687 0.379438
2377.51 0.0479442 0.0494355 -0.678852
2377.61 0.0480959 0.0491884 -0.4924
2377.71 0.0451359 0.0489456 -1.74692
2377.81 0.0475841 0.048707 -0.509069
2377.91 0.0485556 0.0484725 0.0369442
2378.01 0.0476476 0.0482421 -0.267679
2378.11 0.0515302 0.0480158 1.52202
2378.21 0.0486412 0.0477933 0.377502
2378.31 0.051477 0.0475747 1.71548
2378.41 0.0508028 0.0473599 1.52208
2378.51 0.0443625 0.0471489 -1.26287
2378.61 0.0437642 0.0469415 -1.45886
2378.71 0.0422281 0.0467377 -2.09452
2378.81 0.0450518 0.0465375 -0.67828
2378.91 0.0464666 0.0463407 0.056525
2379.01 0.0454651 0.0461474 -0.311887
2379.11 0.0466597 0.0459574 0.319937
2379.21 0.0489928 0.0457708 1.42836
2379.31 0.0453401 0.0455873 -0.113114
2379.41 0.0426376 0.0454071 -1.30839
2379.51 0.0461688 0.04523 0.425009
2379.61 0.043927 0.0450559 -0.528091
2379.71 0.0435437 0.0448849 -0.612521
2379.81 0.0383217 0.0447169 -3.07403
2379.91 0.0464072 0.0445518 0.844301
2380.01 0.0462166 0.0443895 0.834119
2380.11 0.04037 0.0442301 -1.85069
2380.21 0.0423388 0.0440735 -0.816751
2380.31 0.0443171 0.0439195 0.186695
2380.41 0.0409859 0.0437683 -1.29622
2380.51 0.045925 0.0436196 1.0497
2380.61 0.0437389 0.0434736 0.122998
2380.71 0.0473887 0.0433301 1.81281
2380.81 0.0412568 0.0431891 -0.915147
2380.91 0.0461538 0.0430505 1.39952
2381.01 0.0408967 0.0429144 -0.955768
2381.11 0.0400668 0.0427806 -1.30367
2381.21 0.0396661 0.0426491 -1.38863
2381.31 0.0441416 0.0425199 0.754888
2381.41 0.0463909 0.042393 1.82673
2381.51 0.0428828 0.0422683 0.289396
2381.61 0.0416795 0.0421457 -0.221148
2381.71 0.0420957 0.0420253 0.0325958
2381.81 0.0430803 0.041907 0.553124
2381.91 0.0422941 0.0417907 0.238421
2382.01 0.0418218 0.0416764 0.0692467
2382.11 0.0408216 0.0415641 -0.347643
2382.21 0.0433263 0.0414538 0.863336
2382.31 0.0395285 0.0413454 -0.875284
2382.41 0.0425787 0.0412389 0.638775
2382.51 0.0390623 0.0411342 -0.993817
2382.61 0.0413599 0.0410314 0.153527
2382.71 0.0420891 0.0409303 0.552993
2382.81 0.0460012 0.040831 2.3547
2382.91 0.0419413 0.0407334 0.584091
2383.01 0.0418002 0.0406376 0.545845
2383.11 0.0424764 0.0405433 0.921405
2383.21 0.0389914 0.0404508 -0.707435
2383.31 0.0403881 0.0403598 0.01341
2383.41 0.0399787 0.0402704 -0.137076
2383.51 0.0398696 0.0401826 -0.149576
2383.61 0.0382245 0.0400962 -0.911994
2383.71 0.0418086 0.0400114 0.849508
2383.81 0.0441491 0.0399281 1.98654
2383.91 0.0418085 0.0398462 0.92456
2384.01 0.0413046 0.0397657 0.727882
2384.11 0.0429359 0.0396867 1.54375
2384.21 0.0374415 0.039609 -1.06856
2384.31 0.0428978 0.0395326 1.61296
2384.41 0.0429231 0.0394576 1.63626
2384.51 0.0395618 0.0393839 0.08595
2384.61 0.041962 0.0393115 1.24697
2384.71 0.0385895 0.0392403 -0.316068
2384.81 0.0404172 0.0391704 0.598468
2384.91 0.0408091 0.0391017 0.796962
2385.01 0.0358013 0.0390341 -1.58762
2385.11 0.0395031 0.0389678 0.259277
2385.21 0.0374867 0.0389026 -0.700658
2385.31 0.038014 0.0388385 -0.403223
2385.41 0.0416648 0.0387756 1.38121
2385.51 0.0396772 0.0387137 0.475006
2385.61 0.0400406 0.0386529 0.671277
2385.71 0.0375552 0.0385932 -0.510147
2385.81 0.0402879 0.0385345 0.832667
2385.91 0.037897 0.0384769 -0.284458
2386.01 0.0402221 0.0384202 0.851086
2386.11 0.0391457 0.0383645 0.38064
2386.21 0.0415988 0.0383098 1.58665
2386.31 0.036716 0.038256 -0.759467
2386.41 0.0380816 0.0382032 -0.0588193
2386.51 0.0382896 0.0381513 0.066542
2386.61 0.0363721 0.0381003 -0.855199
2386.71 0.0395889 0.0380502 0.74576
2386.81 0.0360114 0.0380009 -0.985972
2386.91 0.0369918 0.0379525 -0.471839
2387.01 0.0368803 0.037905 -0.500828
2387.11 0.0387888 0.0378582 0.453851
2387.21 0.0384159 0.0378123 0.293961
2387.31 0.0366171 0.0377672 -0.572667
2387.41 0.0331669 0.0377229 -2.27035
2387.51 0.0367316 0.0376793 -0.469073
2387.61 0.0377968 0.0376365 0.0783621
2387.71 0.037255 0.0375944 -0.16606
2387.81 0.0356318 0.0375531 -0.946504
2387.91 0.0387537 0.0375125 0.606165
2388.01 0.0398524 0.0374726 1.15335
2388.11 0.0379849 0.0374334 0.269766
2388.21 0.0370501 0.0373949 -0.171347
2388.31 0.0367961 0.037357 -0.271028
2388.41 0.0382487 0.0373198 0.451439
2388.51 0.0365241 0.0372832 -0.374376
2388.61 0.035671 0.0372473 -0.783054
2388.71 0.0379161 0.037212 0.344741
2388.81 0.0363988 0.0371773 -0.387109
2388.91 0.037925 0.0371433 0.387282
2389.01 0.0353243 0.0371098 -0.88322
2389.11 0.0381353 0.0370769 0.514809
2389.21 0.0378499 0.0370445 0.393458
2389.31 0.0326073 0.0370127 -2.20184
2389.41 0.0327029 0.0369815 -2.18793
2389.51 0.0383629 0.0369509 0.694319
2389.61 0.0361409 0.0369207 -0.384775
2389.71 0.0367934 0.0368911 -0.0488407
2389.81 0.0387132 0.036862 0.901993
2389.91 0.036468 0.0368334 -0.179947
