# Data from DA_130130_E2.h5 stim 2
# Ratiometric estimator mono-exponential fit
# Fitted model Ca = baseline+delta*exp(-(t-t0)/tau)
# nobs = 171
# number of degrees of freedom = 168
# baseline length = 7
# fit started from point 36
# estimated baseline 0.0410404 and standard error 0.000402645
# estimated delta 0.0488653 and standard error 0.00237676
# estimated tau 1.78303 and standard error 0.127275
# residual sum of squares: 166.535
# RSS per degree of freedom: 0.991279
# Probability of observing a larger of equal RSS per DOF under the null hypothesis: 0.517452

# rss per degree of freedom: 0.991279

# Time    Ca  Prediction  Residual
1130.02 0.0344419 0.0410404 -1.69553
1130.12 0.0408368 0.0410404 -0.0489686
1130.21 0.040262 0.0410404 -0.188757
1130.31 0.0367302 0.0410404 -1.08426
1130.41 0.0455691 0.0410404 1.07914
1130.51 0.0416165 0.0410404 0.140288
1130.61 0.0432291 0.0410404 0.534531

1133.61 0.0898811 0.0899057 -0.00431906
1133.71 0.083445 0.0872405 -0.688596
1133.81 0.0955672 0.0847208 1.85034
1133.91 0.0879651 0.0823384 0.98863
1134.01 0.0722452 0.080086 -1.54256
1134.11 0.0766228 0.0779564 -0.253787
1134.21 0.0764456 0.075943 0.0953783
1134.31 0.0707967 0.0740394 -0.642366
1134.41 0.0742022 0.0722396 0.388196
1134.51 0.0686954 0.070538 -0.364597
1134.61 0.069334 0.0689291 0.0789026
1134.71 0.0643579 0.0674081 -0.633355
1134.81 0.0688599 0.06597 0.588018
1134.91 0.0666648 0.0646103 0.430618
1135.01 0.0635861 0.0633248 0.0544707
1135.11 0.0612218 0.0621094 -0.191108
1135.21 0.0634848 0.0609603 0.543776
1135.31 0.0624918 0.0598738 0.55808
1135.41 0.0576484 0.0588466 -0.256541
1135.51 0.0538097 0.0578755 -0.900708
1135.61 0.0534016 0.0569573 -0.779542
1135.71 0.0573792 0.0560891 0.284429
1135.81 0.059722 0.0552684 0.972815
1135.91 0.0526061 0.0544924 -0.420371
1136.01 0.0538028 0.0537587 0.00976613
1136.11 0.0525317 0.053065 -0.121314
1136.21 0.0517867 0.0524092 -0.140452
1136.31 0.0539404 0.0517891 0.486327
1136.41 0.0486155 0.0512029 -0.609943
1136.51 0.0448102 0.0506486 -1.3912
1136.61 0.0533319 0.0501246 0.725224
1136.71 0.0534869 0.0496291 0.864635
1136.81 0.0492273 0.0491607 0.0154829
1136.91 0.0465927 0.0487178 -0.504533
1137.01 0.0477421 0.0482991 -0.129019
1137.11 0.0533155 0.0479032 1.21871
1137.21 0.0464819 0.0475289 -0.242242
1137.31 0.0458343 0.047175 -0.310223
1137.41 0.0475435 0.0468404 0.164615
1137.51 0.0469049 0.0465241 0.0897217
1137.61 0.0499267 0.046225 0.860706
1137.71 0.0488136 0.0459422 0.66067
1137.81 0.0418003 0.0456749 -0.957106
1137.91 0.0447068 0.0454221 -0.168277
1138.01 0.047629 0.0451831 0.572893
1138.11 0.0338044 0.0449572 -2.84807
1138.21 0.0473693 0.0447435 0.617126
1138.31 0.0456663 0.0445416 0.264802
1138.41 0.044942 0.0443506 0.14127
1138.51 0.0513698 0.0441701 1.63729
1138.61 0.0421333 0.0439994 -0.453311
1138.71 0.0464382 0.043838 0.6064
1138.81 0.0432666 0.0436854 -0.100593
1138.91 0.0470182 0.0435411 0.820484
1139.01 0.0420312 0.0434048 -0.337105
1139.11 0.0484226 0.0432758 1.21755
1139.21 0.0461565 0.0431539 0.712345
1139.31 0.0413278 0.0430386 -0.418026
1139.41 0.0375003 0.0429296 -1.37793
1139.51 0.0353281 0.0428266 -1.91826
1139.61 0.0438023 0.0427292 0.264446
1139.71 0.0406506 0.0426371 -0.481408
1139.81 0.0581489 0.04255 3.46605
1139.91 0.0508791 0.0424676 1.95239
1140.01 0.0455916 0.0423898 0.7674
1140.21 0.0354633 0.0422466 -1.74341
1140.61 0.0487255 0.0420042 1.60472
1140.71 0.0442034 0.0419516 0.547301
1140.81 0.0381623 0.0419019 -0.93032
1140.91 0.0340363 0.041855 -2.00452
1141.01 0.0390278 0.0418105 -0.69344
1141.11 0.049929 0.0417685 1.91223
1141.21 0.0423231 0.0417288 0.146764
1141.31 0.0460321 0.0416913 1.023
1141.41 0.0370696 0.0416558 -1.14967
1141.51 0.0386431 0.0416222 -0.749045
1141.61 0.038219 0.0415905 -0.828226
1141.71 0.0318808 0.0415605 -2.51497
1141.81 0.0393804 0.0415321 -0.538609
1141.91 0.0367612 0.0415053 -1.20627
1142.01 0.0422837 0.0414799 0.196858
1142.11 0.0419962 0.041456 0.132024
1142.21 0.0428489 0.0414333 0.344601
1142.31 0.0418977 0.0414119 0.120192
1142.41 0.0438626 0.0413916 0.603017
1142.51 0.039783 0.0413724 -0.387251
1142.61 0.0425075 0.0413543 0.28335
1142.71 0.0431108 0.0413372 0.434859
1142.81 0.0412496 0.041321 -0.0179598
1142.91 0.0408561 0.0413057 -0.112332
1143.01 0.0447202 0.0412912 0.818921
1143.11 0.035863 0.0412776 -1.38068
1143.21 0.0437465 0.0412646 0.592249
1143.31 0.0450541 0.0412524 0.930558
1143.41 0.0403245 0.0412408 -0.219636
1143.51 0.0386876 0.0412299 -0.652433
1143.61 0.0460388 0.0412196 1.15286
1143.71 0.0429182 0.0412098 0.41315
1143.81 0.0473912 0.0412005 1.47491
1143.91 0.0425641 0.0411918 0.333198
1144.01 0.0391656 0.0411836 -0.497292
1144.11 0.03811 0.0411757 -0.77054
1144.21 0.0444941 0.0411684 0.812824
1144.31 0.0366205 0.0411614 -1.15542
1144.41 0.047884 0.0411548 1.59429
1144.51 0.0344605 0.0411485 -1.74036
1144.61 0.0440345 0.0411426 0.70596
1144.71 0.0399144 0.0411371 -0.307094
1144.81 0.0459974 0.0411318 1.19538
1144.91 0.0433922 0.0411268 0.562284
1145.01 0.0368878 0.0411221 -1.05752
1145.11 0.03841 0.0411176 -0.697803
1145.21 0.0384288 0.0411134 -0.67677
1145.31 0.043924 0.0411094 0.683136
1145.41 0.0469271 0.0411057 1.40316
1145.51 0.0433132 0.0411021 0.550395
1145.61 0.043177 0.0410987 0.521104
1145.71 0.0440463 0.0410956 0.717775
1145.81 0.0315535 0.0410926 -2.51062
1145.91 0.0398497 0.0410897 -0.322209
1146.01 0.0335735 0.041087 -1.97564
1146.11 0.0363684 0.0410845 -1.22753
1146.21 0.0394587 0.0410821 -0.407441
1146.31 0.0458346 0.0410798 1.1348
1146.41 0.0448363 0.0410776 0.897064
1146.51 0.0376876 0.0410756 -0.871923
1146.61 0.0414053 0.0410737 0.0839258
1146.71 0.0387521 0.0410719 -0.587887
1146.81 0.0446815 0.0410702 0.897677
1146.91 0.0358217 0.0410685 -1.35507
1147.01 0.0470342 0.041067 1.44745
1147.11 0.0366069 0.0410655 -1.16475
1147.21 0.0414678 0.0410642 0.100554
1147.31 0.0397045 0.0410629 -0.339882
1147.41 0.03618 0.0410616 -1.26237
1147.51 0.0398352 0.0410605 -0.309252
1147.61 0.0391563 0.0410594 -0.479225
1147.71 0.0455386 0.0410584 1.1137
1147.81 0.0409725 0.0410574 -0.0208962
1147.91 0.043345 0.0410564 0.559116
1148.01 0.0424931 0.0410556 0.353332
1148.11 0.0435639 0.0410547 0.614124
1148.21 0.0449613 0.041054 0.960207
1148.31 0.0390634 0.0410532 -0.504358
1148.41 0.041621 0.0410525 0.141844
1148.51 0.0380448 0.0410519 -0.769809
1148.61 0.0423549 0.0410512 0.327468
1148.71 0.0421599 0.0410506 0.271401
1148.81 0.042117 0.0410501 0.26798
1148.91 0.0476648 0.0410496 1.59968
1149.01 0.0510445 0.0410491 2.35769
1149.11 0.0385191 0.0410486 -0.648688
1149.21 0.0444244 0.0410481 0.822707
1149.31 0.0397561 0.0410477 -0.330155
1149.41 0.040855 0.0410473 -0.0479973
1149.51 0.0318673 0.0410469 -2.42502
1149.61 0.049085 0.0410466 1.91278
1149.71 0.0428964 0.0410462 0.446328
1149.81 0.0399384 0.0410459 -0.281373
1149.91 0.0432059 0.0410456 0.53256
1150.01 0.0353051 0.0410453 -1.46891
1150.11 0.0424816 0.0410451 0.357291
1150.21 0.0432589 0.0410448 0.553037
1150.31 0.0467062 0.0410446 1.37074
