# Data from DA_130130_E2.h5 stim 1
# Ratiometric estimator mono-exponential fit
# Fitted model Ca = baseline+delta*exp(-(t-t0)/tau)
# nobs = 181
# number of degrees of freedom = 178
# baseline length = 7
# fit started from point 26
# estimated baseline 0.0466352 and standard error 0.000712525
# estimated delta 0.0665676 and standard error 0.00469285
# estimated tau 1.82178 and standard error 0.179009
# residual sum of squares: 189.302
# RSS per degree of freedom: 1.06349
# Probability of observing a larger of equal RSS per DOF under the null hypothesis: 0.26699

# rss per degree of freedom: 1.06349

# Time    Ca  Prediction  Residual
750.015 0.0500794 0.0466352 0.444143
750.115 0.0551533 0.0466352 1.05488
750.215 0.0610161 0.0466352 1.74494
750.315 0.042359 0.0466352 -0.586639
750.415 0.0434558 0.0466352 -0.431595
750.515 0.051231 0.0466352 0.579427
750.615 0.0616084 0.0466352 1.78538

752.615 0.104712 0.113203 -0.75593
752.715 0.0986555 0.109647 -0.997219
752.815 0.103101 0.106282 -0.283624
752.915 0.116024 0.103096 1.07377
753.015 0.095223 0.10008 -0.45008
753.115 0.0839874 0.0972255 -1.34424
753.215 0.103075 0.0945234 0.768852
753.315 0.091548 0.0919656 -0.0405223
753.415 0.0911328 0.0895444 0.146917
753.515 0.1001 0.0872525 1.20654
753.615 0.0996759 0.0850831 1.33176
753.715 0.0987371 0.0830295 1.49158
753.815 0.0904198 0.0810856 0.892443
753.915 0.0861891 0.0792455 0.686195
754.015 0.0869086 0.0775037 0.917207
754.115 0.0713608 0.075855 -0.495174
754.215 0.0758833 0.0742943 0.166699
754.315 0.0764373 0.072817 0.393532
754.415 0.0597371 0.0714185 -1.37509
754.515 0.073611 0.0700948 0.374344
754.615 0.0578058 0.0688418 -1.31053
754.715 0.0772464 0.0676557 1.06758
754.815 0.0768691 0.0665329 1.15535
754.915 0.0609834 0.0654701 -0.533471
755.015 0.05209 0.0644641 -1.52645
755.115 0.0650298 0.0635118 0.181623
755.215 0.0467255 0.0626104 -2.07301
755.315 0.0790081 0.0617572 1.84956
755.415 0.0689645 0.0609495 0.914105
755.515 0.0659094 0.0601849 0.66047
755.615 0.054614 0.0594612 -0.590493
755.715 0.0545456 0.0587761 -0.53306
755.815 0.0703334 0.0581277 1.40996
755.915 0.0508461 0.0575138 -0.86271
756.015 0.0521235 0.0569328 -0.601526
756.115 0.0484105 0.0563827 -1.02758
756.215 0.0366393 0.0558621 -2.69882
756.315 0.0558793 0.0553693 0.0628895
756.415 0.0500473 0.0549028 -0.622667
756.515 0.0574306 0.0544612 0.366771
756.615 0.0403035 0.0540432 -1.9248
756.715 0.057048 0.0536475 0.430203
756.815 0.0575644 0.053273 0.534947
756.915 0.0491046 0.0529184 -0.489924
757.015 0.056358 0.0525828 0.463852
757.115 0.0395432 0.0522652 -1.73705
757.215 0.0464057 0.0519644 -0.719484
757.315 0.0659413 0.0516798 1.68544
757.415 0.0526448 0.0514104 0.153391
757.515 0.0594591 0.0511553 1.05199
757.615 0.0530395 0.0509139 0.269237
757.715 0.0613722 0.0506853 1.30317
757.815 0.0499259 0.050469 -0.0701233
757.915 0.0528665 0.0502642 0.334889
758.015 0.0604081 0.0500704 1.33931
758.115 0.0752243 0.0498869 2.86161
758.215 0.055706 0.0497132 0.760587
758.315 0.0513396 0.0495488 0.229317
758.415 0.0502319 0.0493932 0.109543
758.515 0.0469659 0.0492459 -0.300416
758.615 0.0572353 0.0491065 1.0094
758.715 0.0517357 0.0489745 0.352266
758.815 0.0460084 0.0488495 -0.397407
758.915 0.0441391 0.0487312 -0.622972
759.015 0.0437621 0.0486193 -0.662344
759.115 0.0422633 0.0485133 -0.88793
759.215 0.0459928 0.048413 -0.324007
759.315 0.0477298 0.048318 -0.0790255
759.415 0.052315 0.0482282 0.531342
759.515 0.0490033 0.0481431 0.11615
759.615 0.0498026 0.0480625 0.238215
759.715 0.0459764 0.0479863 -0.267755
759.815 0.0363205 0.0479141 -1.65278
759.915 0.0545302 0.0478458 0.865641
760.015 0.0531188 0.0477812 0.700262
760.115 0.0593055 0.04772 1.45775
760.215 0.0347605 0.047662 -1.85231
760.315 0.0414954 0.0476072 -0.880555
760.415 0.0460485 0.0475553 -0.203495
760.515 0.0399721 0.0475061 -1.07101
760.615 0.0461906 0.0474596 -0.176408
760.715 0.0426596 0.0474156 -0.667508
760.815 0.0426716 0.0473739 -0.660932
760.915 0.0524624 0.0473344 0.642201
761.015 0.0498625 0.0472971 0.339717
761.115 0.0488667 0.0472617 0.220257
761.215 0.0542904 0.0472283 0.888166
761.315 0.0480016 0.0471966 0.108005
761.415 0.0450356 0.0471666 -0.287163
761.515 0.0522722 0.0471382 0.668606
761.615 0.0552491 0.0471113 1.06863
761.715 0.0536027 0.0470859 0.81531
761.815 0.0611931 0.0470618 1.82761
761.915 0.0412358 0.0470391 -0.808718
762.015 0.0488363 0.0470175 0.249592
762.115 0.0350444 0.0469971 -1.71408
762.215 0.0446656 0.0469777 -0.314662
762.315 0.0480009 0.0469594 0.143484
762.415 0.0506864 0.0469421 0.511738
762.515 0.0606768 0.0469257 1.73047
762.615 0.0612923 0.0469102 1.7959
762.715 0.0523751 0.0468955 0.721894
762.815 0.0307892 0.0468816 -2.46007
762.915 0.0591285 0.0468685 1.56004
763.015 0.0373583 0.046856 -1.30778
763.115 0.0456438 0.0468442 -0.166907
763.215 0.044342 0.046833 -0.344963
763.315 0.0438684 0.0468225 -0.411701
763.415 0.0548504 0.0468125 1.02345
763.515 0.0464824 0.046803 -0.0439895
763.615 0.0371004 0.046794 -1.43613
763.715 0.043188 0.0467856 -0.507178
763.815 0.0495574 0.0467775 0.373167
763.915 0.0498036 0.0467699 0.40876
764.015 0.0446307 0.0467627 -0.299738
764.115 0.0458555 0.0467559 -0.123967
764.215 0.0399909 0.0467495 -0.99316
764.315 0.0523644 0.0467434 0.746275
764.415 0.0538671 0.0467376 0.946754
764.515 0.048615 0.0467321 0.256937
764.615 0.0442075 0.0467269 -0.345634
764.715 0.0484291 0.046722 0.240925
764.815 0.0478005 0.0467174 0.150586
764.915 0.0476404 0.046713 0.124968
765.015 0.0471941 0.0467089 0.0669445
765.115 0.062066 0.0467049 1.96165
765.215 0.0607916 0.0467012 1.7883
765.315 0.039646 0.0466977 -1.02427
765.415 0.045607 0.0466943 -0.150781
765.515 0.0451211 0.0466912 -0.221783
765.615 0.0480487 0.0466882 0.185148
765.715 0.0604747 0.0466854 1.78834
765.815 0.0442356 0.0466827 -0.330715
765.915 0.043639 0.0466801 -0.432062
766.015 0.0478806 0.0466777 0.161985
766.115 0.0456854 0.0466755 -0.140774
766.215 0.0592404 0.0466733 1.64499
766.315 0.038769 0.0466713 -1.17203
766.415 0.062686 0.0466694 1.93933
766.515 0.0504423 0.0466675 0.500128
766.615 0.0475855 0.0466658 0.127209
766.715 0.0573306 0.0466642 1.35515
766.815 0.0353306 0.0466626 -1.73559
766.915 0.0546604 0.0466612 1.05588
767.015 0.0458971 0.0466598 -0.10603
767.115 0.0526988 0.0466585 0.797705
767.215 0.0585577 0.0466572 1.53847
767.315 0.0590691 0.046656 1.5674
767.415 0.0381949 0.0466549 -1.254
767.515 0.0549839 0.0466539 1.06403
767.615 0.0420368 0.0466529 -0.644656
767.715 0.0454247 0.0466519 -0.173302
767.815 0.0570461 0.046651 1.39701
767.915 0.037887 0.0466502 -1.2683
768.015 0.0456833 0.0466494 -0.135411
768.115 0.0402012 0.0466486 -0.923485
768.215 0.0386571 0.0466479 -1.16766
768.315 0.0498313 0.0466472 0.424836
768.415 0.0454551 0.0466466 -0.166825
768.515 0.0402004 0.046646 -0.906484
768.615 0.0474133 0.0466454 0.10729
768.715 0.0299298 0.0466449 -2.60087
768.815 0.0394645 0.0466443 -1.05805
768.915 0.0381151 0.0466439 -1.23931
769.015 0.0468107 0.0466434 0.0234327
769.115 0.05189 0.046643 0.726695
769.215 0.0505388 0.0466425 0.519801
769.315 0.0540945 0.0466421 0.965621
769.415 0.0326761 0.0466418 -2.09833
769.515 0.0419864 0.0466414 -0.680069
769.615 0.0432445 0.0466411 -0.499667
769.715 0.0431902 0.0466408 -0.491544
769.815 0.0367387 0.0466405 -1.45621
769.915 0.0377331 0.0466402 -1.29678
