# Data from DA_130130_E2.h5 stim 3
# Ratiometric estimator mono-exponential fit
# Fitted model Ca = baseline+delta*exp(-(t-t0)/tau)
# nobs = 170
# number of degrees of freedom = 167
# baseline length = 7
# fit started from point 37
# estimated baseline 0.0357049 and standard error 0.000393404
# estimated delta 0.0363293 and standard error 0.00119247
# estimated tau 3.12474 and standard error 0.190503
# residual sum of squares: 197.353
# RSS per degree of freedom: 1.18175
# Probability of observing a larger of equal RSS per DOF under the null hypothesis: 0.0541759

# rss per degree of freedom: 1.18175

# Time    Ca  Prediction  Residual
1540.02 0.0346569 0.0357049 -0.374606
1540.12 0.0281919 0.0357049 -2.8237
1540.21 0.0351365 0.0357049 -0.202982
1540.31 0.0339744 0.0357049 -0.615665
1540.41 0.0350582 0.0357049 -0.228961
1540.51 0.0381926 0.0357049 0.873863
1540.61 0.0396968 0.0357049 1.39554

1543.71 0.0702884 0.0720341 -0.482225
1543.81 0.0701323 0.0708899 -0.209949
1543.91 0.0678866 0.0697817 -0.527883
1544.01 0.0708319 0.0687084 0.58872
1544.11 0.067262 0.0676689 -0.115251
1544.21 0.0650929 0.0666622 -0.445435
1544.31 0.0693948 0.0656872 1.02958
1544.41 0.0709471 0.0647428 1.72385
1544.51 0.0641402 0.0638283 0.0886278
1544.61 0.0575044 0.0629425 -1.60402
1544.71 0.0638623 0.0620846 0.521029
1544.81 0.0636856 0.0612538 0.705716
1544.91 0.0617315 0.0604491 0.382499
1545.01 0.0593803 0.0596697 -0.0860302
1545.11 0.0571331 0.0589149 -0.542085
1545.21 0.0605834 0.0581839 0.712475
1545.31 0.0533331 0.0574759 -1.31541
1545.41 0.0592728 0.0567902 0.736627
1545.51 0.0574462 0.0561261 0.400704
1545.61 0.0553754 0.0554829 -0.0327731
1545.71 0.0594088 0.05486 1.36696
1545.81 0.0505075 0.0542567 -1.17447
1545.91 0.0511167 0.0536724 -0.793841
1546.01 0.0579059 0.0531065 1.42537
1546.11 0.0590748 0.0525584 1.95205
1546.21 0.0494949 0.0520276 -0.801465
1546.31 0.0437097 0.0515135 -2.57438
1546.41 0.0505159 0.0510156 -0.15767
1546.51 0.0480451 0.0505333 -0.801268
1546.61 0.0533851 0.0500663 1.03327
1546.71 0.0481042 0.049614 -0.489602
1546.81 0.0548549 0.0491759 1.77779
1546.91 0.0477365 0.0487516 -0.326806
1547.01 0.0443913 0.0483407 -1.30841
1547.11 0.0480398 0.0479427 0.0308813
1547.21 0.0449944 0.0475573 -0.834132
1547.31 0.0397277 0.047184 -2.50075
1547.41 0.0473296 0.0468224 0.160326
1547.51 0.0436337 0.0464722 -0.952408
1547.61 0.0488878 0.0461331 0.885248
1547.71 0.0444121 0.0458047 -0.458705
1547.81 0.0462011 0.0454866 0.236337
1547.91 0.0472936 0.0451785 0.684292
1548.01 0.0529777 0.0448801 2.5403
1548.11 0.0503199 0.0445911 1.78983
1548.21 0.044582 0.0443112 0.089048
1548.31 0.0414084 0.0440402 -0.886961
1548.41 0.0378273 0.0437776 -2.08245
1548.51 0.0443421 0.0435234 0.267291
1548.61 0.0461131 0.0432771 0.921289
1548.71 0.0402681 0.0430386 -0.93681
1548.81 0.043845 0.0428076 0.343775
1548.91 0.0419411 0.0425839 -0.215286
1549.01 0.0494861 0.0423673 2.28191
1549.11 0.0372626 0.0421574 -1.70607
1549.21 0.0428925 0.0419542 0.310851
1549.31 0.0402803 0.0417574 -0.505053
1549.41 0.0458355 0.0415667 1.43091
1549.51 0.0406921 0.0413821 -0.232674
1549.61 0.0367851 0.0412033 -1.56778
1549.71 0.040714 0.0410301 -0.107859
1549.81 0.0411936 0.0408624 0.112702
1549.91 0.0438662 0.0407 1.05627
1550.01 0.045239 0.0405426 1.5596
1550.11 0.0373128 0.0403903 -1.07187
1550.21 0.036203 0.0402427 -1.4254
1550.31 0.0333739 0.0400998 -2.44292
1550.41 0.0370892 0.0399614 -0.992548
1550.51 0.0351396 0.0398273 -1.67205
1550.61 0.0451958 0.0396974 1.83768
1550.71 0.0386515 0.0395717 -0.317361
1550.81 0.0365878 0.0394499 -0.99511
1550.91 0.0404511 0.039332 0.37789
1551.01 0.0414816 0.0392177 0.768672
1551.11 0.0402856 0.0391071 0.402264
1551.21 0.0455186 0.0389999 2.12071
1551.31 0.0451177 0.0388961 2.0724
1551.41 0.044567 0.0387956 1.93797
1551.51 0.0352853 0.0386983 -1.21554
1551.61 0.0401345 0.038604 0.519926
1551.71 0.0343986 0.0385127 -1.45114
1551.81 0.0375335 0.0384243 -0.310804
1551.91 0.0369457 0.0383386 -0.481806
1552.01 0.0409929 0.0382557 0.93944
1552.11 0.0408329 0.0381753 0.905123
1552.21 0.0393796 0.0380975 0.440271
1552.31 0.0401397 0.0380221 0.732358
1552.41 0.037209 0.0379492 -0.260017
1552.51 0.0376476 0.0378785 -0.080894
1552.61 0.0360626 0.03781 -0.601115
1552.71 0.0392803 0.0377437 0.529826
1552.81 0.038005 0.0376795 0.112012
1552.91 0.0363123 0.0376173 -0.469846
1553.01 0.0344568 0.0375571 -1.10093
1553.11 0.0414331 0.0374987 1.35232
1553.21 0.0375378 0.0374422 0.0334171
1553.31 0.0392024 0.0373875 0.622284
1553.41 0.0394312 0.0373345 0.705488
1553.51 0.0403707 0.0372832 1.05651
1553.61 0.0371925 0.0372335 -0.0144767
1553.71 0.0406029 0.0371853 1.18092
1553.81 0.0413559 0.0371387 1.46367
1553.91 0.0384174 0.0370935 0.457315
1554.01 0.0363221 0.0370498 -0.259345
1554.11 0.0385521 0.0370074 0.544147
1554.21 0.0338784 0.0369664 -1.12304
1554.31 0.038728 0.0369267 0.63967
1554.41 0.0372548 0.0368882 0.130672
1554.51 0.0303972 0.0368509 -2.4005
1554.61 0.0394078 0.0368148 0.90014
1554.71 0.0406779 0.0367799 1.33521
1554.81 0.0408056 0.036746 1.39478
1554.91 0.0335806 0.0367132 -1.11468
1555.01 0.035927 0.0366815 -0.267179
1555.11 0.0403095 0.0366507 1.28031
1555.21 0.0339051 0.0366209 -0.995062
1555.31 0.0383645 0.0365921 0.625201
1555.41 0.0403467 0.0365641 1.32917
1555.51 0.0347885 0.0365371 -0.643909
1555.61 0.0341541 0.0365108 -0.848768
1555.71 0.0367645 0.0364855 0.100009
1555.81 0.033653 0.0364609 -1.00755
1555.91 0.0387952 0.0364371 0.826851
1556.01 0.0374618 0.036414 0.367285
1556.11 0.0334225 0.0363917 -1.10739
1556.21 0.0365522 0.03637 0.0657235
1556.31 0.0336577 0.0363491 -0.977562
1556.41 0.0398525 0.0363288 1.23322
1556.51 0.0359592 0.0363091 -0.12294
1556.61 0.0362821 0.0362901 -0.00285788
1556.71 0.0372029 0.0362717 0.329282
1556.81 0.0302559 0.0362538 -2.22783
1556.91 0.0379966 0.0362365 0.624856
1557.01 0.0344726 0.0362198 -0.633473
1557.11 0.0344482 0.0362036 -0.633823
1557.21 0.0316375 0.0361879 -1.66731
1557.31 0.0329047 0.0361727 -1.20016
1557.41 0.0400043 0.0361579 1.33895
1557.51 0.0359633 0.0361437 -0.06509
1557.61 0.034726 0.0361298 -0.500972
1557.71 0.0387956 0.0361164 0.935419
1557.81 0.03148 0.0361035 -1.70442
1557.91 0.0334589 0.0360909 -0.95906
1558.01 0.0324311 0.0360788 -1.34572
1558.11 0.0385296 0.036067 0.875942
1558.21 0.0356878 0.0360556 -0.13183
1558.31 0.0345957 0.0360445 -0.517652
1558.41 0.0379092 0.0360338 0.669039
1558.51 0.0375221 0.0360235 0.533633
1558.61 0.0339858 0.0360134 -0.732787
1558.71 0.0377931 0.0360037 0.635456
1558.81 0.0337739 0.0359943 -0.820486
1558.91 0.0438591 0.0359852 2.72346
1559.01 0.0336056 0.0359764 -0.859988
1559.11 0.037403 0.0359678 0.508732
1559.21 0.0354337 0.0359595 -0.188617
1559.31 0.0406773 0.0359515 1.60086
1559.41 0.0375725 0.0359437 0.576274
1559.51 0.0353981 0.0359362 -0.193441
1559.61 0.0389309 0.0359289 1.05388
1559.71 0.0355127 0.0359219 -0.149674
1559.81 0.0350866 0.035915 -0.301206
1559.91 0.0366912 0.0359084 0.273726
