# Data from DA_120906_E1.h5 stim 3
# Ratiometric estimator mono-exponential fit
# Fitted model Ca = baseline+delta*exp(-(t-t0)/tau)
# nobs = 165
# number of degrees of freedom = 162
# baseline length = 7
# fit started from point 42
# estimated baseline 0.130521 and standard error 0.000725029
# estimated delta 0.0308078 and standard error 0.00203744
# estimated tau 3.05313 and standard error 0.389237
# residual sum of squares: 179.504
# RSS per degree of freedom: 1.10805
# Probability of observing a larger of equal RSS per DOF under the null hypothesis: 0.164483

# rss per degree of freedom: 1.10805

# Time    Ca  Prediction  Residual
731.247 0.125722 0.130521 -0.968619
731.347 0.129665 0.130521 -0.167738
731.447 0.124046 0.130521 -1.31704
731.547 0.1259 0.130521 -0.925206
731.647 0.11949 0.130521 -2.29927
731.747 0.128408 0.130521 -0.419288
731.847 0.121366 0.130521 -1.88834

735.447 0.155349 0.161329 -1.01333
735.547 0.162764 0.160336 0.40403
735.647 0.164585 0.159376 0.853011
735.747 0.15487 0.158446 -0.607919
735.847 0.160231 0.157546 0.442597
735.947 0.16443 0.156675 1.27621
736.047 0.1687 0.155832 2.07926
736.147 0.156002 0.155017 0.16799
736.247 0.14983 0.154228 -0.773491
736.347 0.148791 0.153464 -0.836946
736.447 0.159191 0.152724 1.09195
736.547 0.142634 0.152009 -1.70984
736.647 0.152912 0.151317 0.274222
736.747 0.153694 0.150646 0.529037
736.847 0.142639 0.149998 -1.34173
736.947 0.147525 0.14937 -0.331111
737.047 0.153361 0.148763 0.796026
737.147 0.15296 0.148175 0.823074
737.247 0.148671 0.147606 0.185983
737.347 0.143679 0.147056 -0.608187
737.447 0.137787 0.146523 -1.64467
737.547 0.143939 0.146007 -0.376751
737.647 0.140141 0.145508 -1.0071
737.747 0.146805 0.145025 0.318953
737.847 0.136365 0.144558 -1.55104
737.947 0.150936 0.144106 1.18919
738.047 0.139093 0.143668 -0.851575
738.147 0.148741 0.143244 0.972941
738.247 0.145322 0.142834 0.44672
738.347 0.144975 0.142438 0.462356
738.447 0.153472 0.142054 1.95891
738.547 0.145304 0.141682 0.644016
738.647 0.144158 0.141322 0.506972
738.747 0.137274 0.140974 -0.699247
738.847 0.142364 0.140638 0.317985
738.947 0.131495 0.140312 -1.71274
739.047 0.137008 0.139996 -0.567327
739.147 0.138585 0.139691 -0.208344
739.247 0.151605 0.139395 2.10212
739.347 0.132831 0.139109 -1.19203
739.447 0.143302 0.138833 0.815017
739.547 0.138658 0.138565 0.0173902
739.647 0.131073 0.138306 -1.40912
739.747 0.139799 0.138055 0.323287
739.847 0.13517 0.137812 -0.505003
739.947 0.136573 0.137577 -0.188519
740.047 0.139912 0.13735 0.474549
740.147 0.142324 0.13713 0.944249
740.247 0.139569 0.136917 0.494907
740.347 0.130305 0.136711 -1.25985
740.447 0.13401 0.136511 -0.474869
740.547 0.135193 0.136318 -0.215218
740.647 0.137237 0.136131 0.212982
740.747 0.133173 0.135951 -0.526098
740.847 0.138713 0.135776 0.560195
740.947 0.136328 0.135606 0.136732
741.047 0.13417 0.135443 -0.24529
741.147 0.131835 0.135284 -0.676896
741.247 0.134866 0.135131 -0.0509086
741.347 0.13021 0.134982 -0.944605
741.447 0.13166 0.134838 -0.626705
741.547 0.13409 0.134699 -0.118836
741.647 0.129873 0.134565 -0.902467
741.747 0.129019 0.134434 -1.05484
741.847 0.134114 0.134308 -0.0373071
741.947 0.138235 0.134186 0.754108
742.047 0.133873 0.134068 -0.0379054
742.147 0.144702 0.133954 1.93271
742.247 0.136403 0.133843 0.483982
742.347 0.130361 0.133736 -0.658308
742.447 0.135474 0.133633 0.343486
742.547 0.118599 0.133532 -3.13406
742.647 0.136973 0.133435 0.67213
742.747 0.130047 0.133341 -0.645092
742.847 0.131302 0.13325 -0.379547
742.947 0.131647 0.133163 -0.291075
743.047 0.141448 0.133077 1.54554
743.147 0.134396 0.132995 0.266772
743.247 0.149382 0.132915 2.90398
743.347 0.126687 0.132838 -1.21021
743.447 0.13207 0.132764 -0.131805
743.547 0.138561 0.132691 1.11339
743.647 0.130201 0.132621 -0.476892
743.747 0.140288 0.132554 1.40937
743.847 0.129984 0.132488 -0.484798
743.947 0.140555 0.132425 1.52608
744.047 0.143086 0.132363 1.94217
744.147 0.13977 0.132304 1.40588
744.247 0.132342 0.132247 0.0183313
744.347 0.132965 0.132191 0.150063
744.447 0.136997 0.132137 0.919861
744.547 0.13533 0.132085 0.61218
744.647 0.13691 0.132035 0.901874
744.747 0.139367 0.131986 1.37813
744.847 0.138782 0.131939 1.28322
744.947 0.124538 0.131893 -1.48682
745.047 0.137114 0.131849 1.00258
745.147 0.131209 0.131806 -0.1162
745.247 0.133906 0.131765 0.410973
745.347 0.131095 0.131725 -0.122766
745.447 0.124191 0.131686 -1.50816
745.547 0.13622 0.131648 0.878268
745.647 0.13524 0.131612 0.69409
745.747 0.121557 0.131577 -2.05543
745.847 0.126871 0.131543 -0.925302
745.947 0.128281 0.13151 -0.638756
746.047 0.124208 0.131478 -1.46372
746.147 0.129122 0.131447 -0.449191
746.247 0.133898 0.131417 0.470817
746.347 0.133244 0.131389 0.359688
746.447 0.140861 0.131361 1.76801
746.547 0.127867 0.131334 -0.692006
746.647 0.13208 0.131307 0.15158
746.747 0.13708 0.131282 1.12194
746.847 0.137047 0.131258 1.10211
746.947 0.13206 0.131234 0.161222
747.047 0.136434 0.131211 0.974932
747.147 0.128898 0.131189 -0.452875
747.247 0.133118 0.131167 0.371726
747.347 0.126269 0.131146 -0.987752
747.447 0.131647 0.131126 0.102302
747.547 0.136439 0.131107 1.02032
747.647 0.12701 0.131088 -0.81773
747.747 0.125517 0.13107 -1.10769
747.847 0.12684 0.131052 -0.848538
747.947 0.13728 0.131035 1.17497
748.047 0.135829 0.131018 0.916433
748.147 0.131634 0.131002 0.124017
748.247 0.130439 0.130987 -0.108181
748.347 0.130279 0.130972 -0.13629
748.447 0.130308 0.130957 -0.127648
748.547 0.125314 0.130943 -1.13404
748.647 0.138265 0.13093 1.37288
748.747 0.122945 0.130916 -1.61332
748.847 0.129418 0.130904 -0.295402
748.947 0.131378 0.130891 0.0946773
749.047 0.14446 0.130879 2.49281
749.147 0.127786 0.130868 -0.607901
749.247 0.131312 0.130857 0.0887816
749.347 0.119765 0.130846 -2.32182
749.447 0.133115 0.130835 0.444047
749.547 0.123227 0.130825 -1.52927
749.647 0.130004 0.130816 -0.15986
749.747 0.139966 0.130806 1.72301
749.847 0.131266 0.130797 0.0917854
749.947 0.138068 0.130788 1.38886
750.047 0.142127 0.130779 2.10012
750.147 0.128879 0.130771 -0.382209
750.247 0.137139 0.130763 1.19833
750.347 0.129544 0.130755 -0.238661
750.447 0.127937 0.130748 -0.554031
750.547 0.137042 0.13074 1.17135
750.647 0.125537 0.130733 -1.04282
750.747 0.128447 0.130726 -0.451811
750.847 0.128769 0.13072 -0.383162
750.947 0.137115 0.130713 1.21132
751.047 0.131381 0.130707 0.131538
751.147 0.140152 0.130701 1.75743
