# Data from DA_120906_E1.h5 stim 2
# Ratiometric estimator mono-exponential fit
# Fitted model Ca = baseline+delta*exp(-(t-t0)/tau)
# nobs = 170
# number of degrees of freedom = 167
# baseline length = 7
# fit started from point 37
# estimated baseline 0.0609398 and standard error 0.00117512
# estimated delta 0.0368121 and standard error 0.00138225
# estimated tau 6.92681 and standard error 0.655161
# residual sum of squares: 220.469
# RSS per degree of freedom: 1.32018
# Probability of observing a larger of equal RSS per DOF under the null hypothesis: 0.00349917
# WARNING: THE FIT IS NOT GOOD!

# rss per degree of freedom: 1.32018

# Time    Ca  Prediction  Residual
470.639 0.0583868 0.0609398 -0.643232
470.739 0.0560458 0.0609398 -1.23939
470.839 0.0536621 0.0609398 -1.8827
470.939 0.0603049 0.0609398 -0.156898
471.039 0.0596776 0.0609398 -0.311766
471.139 0.0525353 0.0609398 -2.17713
471.239 0.0545785 0.0609398 -1.63934

474.339 0.0919123 0.0977519 -1.16928
474.439 0.0980776 0.0972242 0.165586
474.539 0.103645 0.0967042 1.29493
474.639 0.0982785 0.0961916 0.403535
474.739 0.0943902 0.0956863 -0.256912
474.839 0.10145 0.0951883 1.18737
474.939 0.0890063 0.0946974 -1.15769
475.039 0.106205 0.0942136 2.24288
475.139 0.0980266 0.0937366 0.828666
475.239 0.0994159 0.0932666 1.1994
475.339 0.0969266 0.0928032 0.819018
475.439 0.0902049 0.0923465 -0.43813
475.539 0.0910308 0.0918964 -0.177774
475.639 0.0950234 0.0914527 0.712498
475.739 0.0901658 0.0910153 -0.176134
475.839 0.0931266 0.0905843 0.518692
475.939 0.090159 0.0901594 -7.29963e-05
476.039 0.0931327 0.0897406 0.679146
476.139 0.093748 0.0893278 0.890948
476.239 0.0889132 0.0889209 -0.00157987
476.339 0.0789826 0.0885198 -2.07868
476.439 0.0897764 0.0881245 0.340321
476.539 0.086807 0.0877349 -0.191946
476.639 0.0890797 0.0873508 0.346562
476.739 0.0787859 0.0869723 -1.7824
476.839 0.0801074 0.0865992 -1.4067
476.939 0.0814429 0.0862314 -1.02779
477.039 0.0892633 0.0858689 0.711968
477.139 0.0844934 0.0855116 -0.216531
477.239 0.0851942 0.0851594 0.00732034
477.339 0.0888428 0.0848123 0.831356
477.439 0.100022 0.0844701 3.04349
477.539 0.0812875 0.0841328 -0.613748
477.639 0.0865882 0.0838004 0.58123
477.739 0.0824037 0.0834728 -0.226942
477.839 0.0781696 0.0831498 -1.09598
477.939 0.0778519 0.0828315 -1.0878
478.039 0.0794458 0.0825177 -0.662693
478.139 0.0781325 0.0822084 -0.905856
478.239 0.0794825 0.0819036 -0.52885
478.339 0.0811337 0.0816031 -0.101816
478.439 0.089825 0.0813069 1.77789
478.539 0.0780556 0.081015 -0.656547
478.639 0.0806369 0.0807273 -0.0195183
478.739 0.0780647 0.0804437 -0.517424
478.839 0.0765252 0.0801641 -0.809211
478.939 0.0888839 0.0798886 1.87495
479.039 0.0826186 0.079617 0.655742
479.139 0.0806011 0.0793493 0.270901
479.239 0.0808345 0.0790854 0.379424
479.339 0.0741342 0.0788253 -1.05458
479.439 0.0769065 0.078569 -0.367794
479.539 0.0804365 0.0783163 0.46493
479.639 0.0793302 0.0780672 0.278549
479.739 0.076033 0.0778218 -0.404492
479.839 0.0797588 0.0775798 0.481484
479.939 0.0809928 0.0773413 0.795225
480.039 0.0799415 0.0771062 0.624656
480.139 0.0737544 0.0768745 -0.706262
480.239 0.0739621 0.0766461 -0.618131
480.339 0.0734335 0.076421 -0.669136
480.439 0.0707568 0.0761991 -1.25573
480.539 0.074667 0.0759804 -0.295997
480.639 0.0807635 0.0757648 1.10267
480.739 0.0714164 0.0755523 -0.965839
480.839 0.0704813 0.0753429 -1.13333
480.939 0.0738527 0.0751364 -0.295168
481.039 0.0829829 0.074933 1.73425
481.139 0.0801546 0.0747324 1.18274
481.239 0.0645462 0.0745347 -2.41887
481.339 0.073509 0.0743399 -0.188368
481.439 0.0787581 0.0741478 1.03205
481.539 0.0710704 0.0739585 -0.662895
481.639 0.0716156 0.0737719 -0.498443
481.739 0.0690463 0.073588 -1.07545
481.839 0.0760877 0.0734067 0.583552
481.939 0.0715802 0.073228 -0.386171
482.039 0.0699202 0.0730519 -0.73404
482.139 0.0699154 0.0728783 -0.698378
482.239 0.0669973 0.0727071 -1.3537
482.339 0.0780725 0.0725385 1.22539
482.439 0.0657239 0.0723722 -1.60138
482.539 0.0633696 0.0722084 -2.15058
482.639 0.0717492 0.0720469 -0.0699385
482.739 0.0733101 0.0718877 0.32505
482.839 0.0691647 0.0717308 -0.599583
482.939 0.0684355 0.0715761 -0.756456
483.039 0.0708945 0.0714236 -0.125813
483.139 0.0619745 0.0712734 -2.29947
483.239 0.0749589 0.0711253 0.863106
483.339 0.074013 0.0709793 0.693242
483.439 0.0659554 0.0708354 -1.177
483.539 0.079111 0.0706935 1.90545
483.639 0.0633124 0.0705537 -1.74209
483.739 0.0705989 0.070416 0.0430733
483.839 0.0694109 0.0702801 -0.205258
483.939 0.0696976 0.0701463 -0.104233
484.039 0.0705364 0.0700143 0.119842
484.139 0.0706832 0.0698842 0.186292
484.239 0.0618914 0.069756 -1.94513
484.339 0.0666236 0.0696297 -0.738451
484.439 0.0551181 0.0695051 -3.80315
484.539 0.072218 0.0693824 0.660723
484.639 0.066781 0.0692613 -0.596997
484.739 0.0696732 0.0691421 0.125428
484.839 0.0666114 0.0690245 -0.584454
484.939 0.0737246 0.0689086 1.12721
485.039 0.0587182 0.0687944 -2.59294
485.139 0.0722607 0.0686818 0.830187
485.239 0.0702955 0.0685709 0.399347
485.339 0.063802 0.0684615 -1.16033
485.439 0.0648185 0.0683537 -0.848053
485.539 0.0723742 0.0682474 0.942407
485.639 0.0661468 0.0681427 -0.480929
485.739 0.0706428 0.0680394 0.614937
485.839 0.0754276 0.0679377 1.71965
485.939 0.0742432 0.0678374 1.48265
486.039 0.0667035 0.0677385 -0.251349
486.139 0.0754686 0.0676411 1.80785
486.239 0.0793753 0.067545 2.66031
486.339 0.0686942 0.0674503 0.29775
486.439 0.0645623 0.067357 -0.669085
486.539 0.0779406 0.0672651 2.3854
486.639 0.074267 0.0671744 1.61522
486.739 0.0657992 0.067085 -0.313302
486.839 0.0678623 0.066997 0.212015
486.939 0.0653891 0.0669101 -0.36674
487.039 0.0679463 0.0668246 0.268174
487.139 0.064939 0.0667402 -0.432826
487.239 0.0708499 0.0666571 0.983346
487.339 0.0724848 0.0665751 1.37579
487.439 0.0735589 0.0664944 1.634
487.539 0.0724092 0.0664147 1.39607
487.639 0.065904 0.0663363 -0.104443
487.739 0.0645076 0.0662589 -0.4279
487.839 0.0655639 0.0661827 -0.150544
487.939 0.0680136 0.0661075 0.454976
488.039 0.0706134 0.0660335 1.06709
488.139 0.0693871 0.0659605 0.814166
488.239 0.0661653 0.0658885 0.066568
488.339 0.078631 0.0658176 2.86637
488.439 0.0611748 0.0657477 -1.14279
488.539 0.0699393 0.0656788 1.00179
488.639 0.0590964 0.0656108 -1.63918
488.739 0.0663848 0.0655439 0.206339
488.839 0.071536 0.0654779 1.41618
488.939 0.0657443 0.0654128 0.0796818
489.039 0.0695396 0.0653487 0.992114
489.139 0.0711521 0.0652855 1.39974
489.239 0.0758082 0.0652232 2.41727
489.339 0.0598864 0.0651619 -1.34171
489.439 0.0700807 0.0651013 1.17367
489.539 0.0717813 0.0650417 1.59155
489.639 0.0625033 0.0649829 -0.614904
489.739 0.0642121 0.0649249 -0.176587
489.839 0.0629286 0.0648678 -0.477778
489.939 0.0612021 0.0648115 -0.886503
490.039 0.0668173 0.064756 0.508262
490.139 0.065127 0.0647013 0.106388
490.239 0.0734205 0.0646474 2.02075
490.339 0.0709527 0.0645943 1.52451
490.439 0.0675606 0.0645419 0.727595
490.539 0.0680785 0.0644903 0.861349
