# Data from DA_130531_E4.h5 stim 2
# Ratiometric estimator mono-exponential fit
# Fitted model Ca = baseline+delta*exp(-(t-t0)/tau)
# nobs = 168
# number of degrees of freedom = 165
# baseline length = 7
# fit started from point 39
# estimated baseline 0.0857185 and standard error 0.000887417
# estimated delta 0.0776659 and standard error 0.00222682
# estimated tau 3.64248 and standard error 0.20858
# residual sum of squares: 192.652
# RSS per degree of freedom: 1.16759
# Probability of observing a larger of equal RSS per DOF under the null hypothesis: 0.0693226

# rss per degree of freedom: 1.16759

# Time    Ca  Prediction  Residual
663.015 0.0929131 0.0857185 1.29436
663.115 0.0968155 0.0857185 1.98818
663.215 0.104628 0.0857185 3.26258
663.315 0.0906956 0.0857185 0.915496
663.415 0.0980433 0.0857185 2.19549
663.515 0.0974112 0.0857185 2.09062
663.615 0.0989493 0.0857185 2.3455

666.915 0.149441 0.163384 -1.92668
667.015 0.169827 0.161281 1.11927
667.115 0.151184 0.159235 -1.13799
667.215 0.165888 0.157244 1.12347
667.315 0.158081 0.155307 0.378384
667.415 0.151237 0.153423 -0.302433
667.515 0.148405 0.151589 -0.443807
667.615 0.142521 0.149805 -1.04901
667.715 0.147377 0.14807 -0.100023
667.815 0.154694 0.146381 1.14665
667.915 0.144828 0.144739 0.0127816
668.015 0.14289 0.14314 -0.0362149
668.115 0.142819 0.141585 0.180609
668.215 0.12969 0.140072 -1.59865
668.315 0.143162 0.1386 0.663245
668.415 0.143683 0.137168 0.932108
668.515 0.133245 0.135775 -0.380926
668.615 0.129483 0.13442 -0.754762
668.715 0.130098 0.133101 -0.46105
668.815 0.138848 0.131818 1.0461
668.915 0.142569 0.130569 1.71404
669.015 0.130037 0.129355 0.103969
669.115 0.119692 0.128173 -1.3619
669.215 0.122615 0.127023 -0.694539
669.315 0.122762 0.125905 -0.49359
669.415 0.125346 0.124816 0.0826836
669.515 0.117773 0.123758 -0.953491
669.615 0.128937 0.122728 0.966036
669.715 0.114945 0.121725 -1.09991
669.815 0.136247 0.12075 2.3287
669.915 0.128954 0.119802 1.41014
670.015 0.120161 0.118879 0.203393
670.115 0.127394 0.117981 1.46376
670.215 0.114591 0.117107 -0.408638
670.315 0.131016 0.116257 2.23657
670.415 0.114531 0.11543 -0.146172
670.515 0.116815 0.114625 0.363434
670.615 0.114354 0.113842 0.0846147
670.715 0.109016 0.113081 -0.684684
670.815 0.109059 0.11234 -0.555306
670.915 0.110802 0.111619 -0.13681
671.015 0.107271 0.110918 -0.613935
671.115 0.105693 0.110235 -0.764974
671.215 0.102792 0.109571 -1.16545
671.315 0.118283 0.108925 1.53235
671.415 0.109612 0.108297 0.220009
671.515 0.112926 0.107685 0.866736
671.615 0.107374 0.107091 0.04711
671.715 0.11835 0.106512 1.92961
671.815 0.0989687 0.105949 -1.22335
671.915 0.099328 0.105401 -1.05874
672.015 0.110096 0.104868 0.87058
672.115 0.104025 0.104349 -0.0558679
672.215 0.113957 0.103845 1.65399
672.315 0.101817 0.103354 -0.266264
672.415 0.0970504 0.102876 -1.03322
672.515 0.0990801 0.102412 -0.582905
672.615 0.109642 0.10196 1.30828
672.715 0.109115 0.10152 1.27478
672.815 0.107338 0.101092 1.06273
672.915 0.115135 0.100676 2.39935
673.015 0.105985 0.100271 0.980878
673.115 0.10597 0.0998764 1.04241
673.215 0.0912962 0.099493 -1.51704
673.315 0.0985224 0.09912 -0.106613
673.415 0.0894264 0.0987571 -1.70774
673.515 0.102422 0.098404 0.700577
673.615 0.0934498 0.0980605 -0.840603
673.715 0.0943905 0.0977263 -0.594548
673.815 0.101676 0.0974011 0.74605
673.915 0.102726 0.0970847 0.968353
674.015 0.0974171 0.0967769 0.112718
674.115 0.0917201 0.0964774 -0.863868
674.215 0.105137 0.0961861 1.50562
674.315 0.0900414 0.0959026 -1.07341
674.415 0.0944588 0.0956268 -0.211407
674.515 0.0903329 0.0953585 -0.933939
674.615 0.0946655 0.0950974 -0.0770816
674.715 0.0948399 0.0948435 -0.00063769
674.815 0.091986 0.0945964 -0.479373
674.915 0.0963464 0.0943559 0.355138
675.015 0.0834252 0.094122 -2.04406
675.115 0.0872288 0.0938945 -1.2163
675.215 0.0974766 0.093673 0.677326
675.315 0.0979575 0.0934576 0.810105
675.415 0.0969212 0.0932481 0.664756
675.515 0.0853278 0.0930442 -1.44545
675.615 0.0985823 0.0928458 0.999823
675.715 0.0845371 0.0926528 -1.52818
675.815 0.0909078 0.092465 -0.284791
675.915 0.10368 0.0922823 1.98966
676.015 0.0875255 0.0921045 -0.845067
676.115 0.102642 0.0919316 1.87636
676.215 0.0877591 0.0917633 -0.745125
676.315 0.0828102 0.0915996 -1.65737
676.415 0.0905207 0.0914404 -0.168602
676.515 0.0888197 0.0912854 -0.451358
676.615 0.0869874 0.0911347 -0.788113
676.715 0.0982634 0.090988 1.30746
676.815 0.0866168 0.0908453 -0.796627
676.915 0.0922603 0.0907065 0.282598
677.015 0.0830374 0.0905714 -1.44439
677.115 0.0926914 0.09044 0.413156
677.215 0.0892594 0.0903121 -0.197045
677.315 0.089913 0.0901877 -0.0510631
677.415 0.0900364 0.0900667 -0.00561966
677.515 0.0873877 0.0899489 -0.479563
677.615 0.0918474 0.0898344 0.363253
677.715 0.0948284 0.0897229 0.932617
677.815 0.0878355 0.0896145 -0.327031
677.915 0.0929524 0.089509 0.608701
678.015 0.0820527 0.0894063 -1.39112
678.115 0.0873643 0.0893064 -0.360923
678.215 0.0845045 0.0892093 -0.906827
678.315 0.0872264 0.0891147 -0.353663
678.415 0.0912369 0.0890228 0.408334
678.515 0.0874365 0.0889333 -0.285545
678.615 0.0788632 0.0888462 -1.91184
678.715 0.0931478 0.0887615 0.806335
678.815 0.0939857 0.0886791 0.941856
678.915 0.0974374 0.088599 1.58649
679.015 0.0818531 0.0885209 -1.24556
679.115 0.0845472 0.0884451 -0.754326
679.215 0.0902943 0.0883712 0.358645
679.315 0.0893265 0.0882994 0.191053
679.415 0.0887236 0.0882295 0.0919118
679.515 0.0864994 0.0881615 -0.308053
679.615 0.0799548 0.0880953 -1.57508
679.715 0.0831662 0.088031 -0.913677
679.815 0.0860686 0.0879683 -0.35722
679.915 0.0862875 0.0879074 -0.302475
680.015 0.0919054 0.0878481 0.742213
680.115 0.0859401 0.0877905 -0.347521
680.215 0.0965228 0.0877344 1.59524
680.315 0.0916287 0.0876798 0.726814
680.415 0.0951118 0.0876267 1.32728
680.515 0.0792615 0.087575 -1.61462
680.615 0.0871043 0.0875247 -0.0782113
680.715 0.0826812 0.0874758 -0.914038
680.815 0.0816222 0.0874282 -1.11151
680.915 0.0856943 0.0873819 -0.316482
681.015 0.0840152 0.0873369 -0.629252
681.115 0.0840281 0.087293 -0.61773
681.215 0.0887522 0.0872504 0.279777
681.315 0.0807766 0.0872089 -1.22028
681.415 0.101337 0.0871685 2.46231
681.515 0.0853366 0.0871293 -0.34088
681.615 0.0797238 0.0870911 -1.43026
681.715 0.0832381 0.0870539 -0.727542
681.815 0.0865296 0.0870177 -0.0909841
681.915 0.0878428 0.0869826 0.163029
682.015 0.085503 0.0869483 -0.267752
682.115 0.0824741 0.086915 -0.83597
682.215 0.0820462 0.0868826 -0.93025
682.315 0.0851808 0.0868511 -0.308447
682.415 0.0832397 0.0868204 -0.683327
682.515 0.0784088 0.0867906 -1.63337
682.615 0.0846375 0.0867615 -0.401305
682.715 0.08659 0.0867333 -0.027109
682.815 0.0820428 0.0867058 -0.892008
682.915 0.0940902 0.0866791 1.3451
