# Data from DA_130531_E4.h5 stim 3
# Ratiometric estimator mono-exponential fit
# Fitted model Ca = baseline+delta*exp(-(t-t0)/tau)
# nobs = 155
# number of degrees of freedom = 152
# baseline length = 7
# fit started from point 52
# estimated baseline 0.0784417 and standard error 0.000974499
# estimated delta 0.0507577 and standard error 0.00169389
# estimated tau 4.19953 and standard error 0.32695
# residual sum of squares: 179.972
# RSS per degree of freedom: 1.18403
# Probability of observing a larger of equal RSS per DOF under the null hypothesis: 0.0602137

# rss per degree of freedom: 1.18403

# Time    Ca  Prediction  Residual
1116.02 0.0742215 0.0784417 -0.939805
1116.12 0.087384 0.0784417 1.85086
1116.21 0.0780458 0.0784417 -0.0863884
1116.31 0.0842041 0.0784417 1.2178
1116.41 0.0810148 0.0784417 0.557336
1116.51 0.0783481 0.0784417 -0.0202976
1116.61 0.0812982 0.0784417 0.618915

1121.21 0.123406 0.129199 -1.0221
1121.31 0.129036 0.128005 0.177728
1121.41 0.121575 0.126839 -0.922817
1121.51 0.122881 0.1257 -0.497694
1121.61 0.121893 0.124588 -0.474755
1121.71 0.135025 0.123502 1.93724
1121.81 0.121137 0.122442 -0.232431
1121.91 0.119629 0.121406 -0.314173
1122.01 0.124809 0.120395 0.757159
1122.11 0.124552 0.119408 0.895442
1122.21 0.117212 0.118444 -0.221339
1122.31 0.120338 0.117503 0.509798
1122.41 0.118896 0.116584 0.419032
1122.51 0.118977 0.115686 0.58938
1122.61 0.120903 0.11481 1.07718
1122.71 0.104652 0.113954 -1.77025
1122.81 0.11374 0.113118 0.114512
1122.91 0.110525 0.112302 -0.333689
1123.01 0.101136 0.111506 -2.00044
1123.11 0.113415 0.110728 0.496528
1123.21 0.110997 0.109968 0.188659
1123.31 0.110315 0.109226 0.20173
1123.41 0.107813 0.108502 -0.128112
1123.51 0.102056 0.107794 -1.12544
1123.61 0.113497 0.107104 1.18057
1123.71 0.0905262 0.106429 -3.20681
1123.81 0.116135 0.105771 1.89519
1123.91 0.104771 0.105128 -0.0685533
1124.01 0.103459 0.1045 -0.199698
1124.11 0.108774 0.103886 0.911807
1124.21 0.112717 0.103288 1.73386
1124.31 0.101817 0.102703 -0.173213
1124.41 0.100559 0.102132 -0.304353
1124.51 0.106885 0.101575 1.00569
1124.61 0.106136 0.10103 0.966467
1124.71 0.101974 0.100499 0.284041
1124.81 0.105416 0.0999798 1.03142
1124.91 0.0990729 0.099473 -0.0788944
1125.01 0.105882 0.0989781 1.32163
1125.11 0.0966794 0.0984949 -0.366527
1125.21 0.099877 0.098023 0.35968
1125.31 0.0971642 0.0975622 -0.0789946
1125.41 0.085179 0.0971123 -2.53595
1125.51 0.10702 0.096673 1.94538
1125.61 0.0991892 0.096244 0.59132
1125.71 0.10088 0.0958251 0.973887
1125.81 0.0913208 0.095416 -0.837184
1125.91 0.0904059 0.0950166 -0.942621
1126.01 0.0936214 0.0946266 -0.203453
1126.11 0.106065 0.0942457 2.2801
1126.21 0.0954659 0.0938738 0.322431
1126.31 0.0938399 0.0935107 0.0674506
1126.41 0.090681 0.0931561 -0.502596
1126.51 0.0933154 0.0928099 0.10315
1126.61 0.0938342 0.0924718 0.276938
1126.71 0.0803025 0.0921416 -2.51742
1126.81 0.093255 0.0918193 0.292572
1126.91 0.096251 0.0915045 0.938565
1127.01 0.0973709 0.0911971 1.21369
1127.11 0.0787084 0.090897 -2.65147
1127.21 0.0871701 0.0906039 -0.693014
1127.31 0.0852446 0.0903177 -1.06835
1127.41 0.0820152 0.0900382 -1.69427
1127.51 0.0912604 0.0897654 0.303876
1127.61 0.086908 0.0894989 -0.538227
1127.71 0.0887823 0.0892387 -0.0931013
1127.81 0.0906077 0.0889847 0.335869
1127.91 0.0910608 0.0887366 0.473934
1128.01 0.0893299 0.0884943 0.17225
1128.11 0.0855986 0.0882578 -0.549373
1128.21 0.0881882 0.0880268 0.0335459
1128.31 0.0840522 0.0878012 -0.798568
1128.41 0.090792 0.087581 0.655571
1128.51 0.0887362 0.0873659 0.281302
1128.61 0.0798556 0.087156 -1.55639
1128.71 0.0803168 0.0869509 -1.446
1128.81 0.0901933 0.0867507 0.713054
1128.91 0.0876715 0.0865552 0.235183
1129.01 0.0850647 0.0863642 -0.269994
1129.11 0.081428 0.0861778 -1.02557
1129.21 0.0870751 0.0859958 0.224896
1129.31 0.0935523 0.085818 1.558
1129.41 0.091601 0.0856444 1.21528
1129.51 0.0793379 0.085475 -1.31085
1129.61 0.0931713 0.0853095 1.61236
1129.71 0.0873427 0.0851479 0.460234
1129.81 0.0896332 0.0849901 0.957853
1129.91 0.0793734 0.084836 -1.18191
1130.01 0.0889751 0.0846855 0.89842
1130.11 0.0823237 0.0845386 -0.474703
1130.21 0.0913855 0.0843951 1.43182
1130.31 0.0871864 0.084255 0.618287
1130.41 0.0901232 0.0841182 1.24126
1130.51 0.0797702 0.0839847 -0.912389
1130.61 0.0800789 0.0838542 -0.806449
1130.71 0.0952457 0.0837269 2.30248
1130.81 0.0907637 0.0836025 1.45949
1130.91 0.0868033 0.0834811 0.674688
1131.01 0.0892981 0.0833625 1.20907
1131.11 0.0871504 0.0832467 0.814416
1131.21 0.0782701 0.0831336 -1.06215
1131.31 0.087023 0.0830232 0.836663
1131.41 0.0834322 0.0829154 0.109189
1131.51 0.086623 0.0828101 0.816108
1131.61 0.0766819 0.0827073 -1.31744
1131.71 0.0835619 0.082607 0.203355
1131.81 0.0822116 0.082509 -0.0623984
1131.91 0.0781695 0.0824133 -0.920323
1132.01 0.0846342 0.0823198 0.48668
1132.11 0.0851243 0.0822285 0.61701
1132.21 0.0773393 0.0821394 -1.06067
1132.31 0.0822619 0.0820524 0.0446177
1132.41 0.0718767 0.0819675 -2.2552
1132.51 0.0785056 0.0818845 -0.72885
1132.61 0.0829778 0.0818035 0.251665
1132.71 0.0768896 0.0817244 -1.06491
1132.81 0.0714589 0.0816471 -2.30656
1132.91 0.0769153 0.0815717 -1.02236
1133.01 0.0817166 0.0814981 0.0466436
1133.11 0.0960534 0.0814261 2.94773
1133.21 0.0764148 0.0813559 -1.07862
1133.31 0.0839771 0.0812873 0.568683
1133.41 0.077073 0.0812204 -0.89637
1133.51 0.0800146 0.081155 -0.246228
1133.61 0.0784604 0.0810911 -0.571186
1133.71 0.0810218 0.0810288 -0.00151412
1133.81 0.0919813 0.0809679 2.2753
1133.91 0.0789907 0.0809085 -0.416266
1134.01 0.0843061 0.0808504 0.731106
1134.11 0.0746678 0.0807938 -1.37977
1134.21 0.0877452 0.0807384 1.46427
1134.31 0.082381 0.0806844 0.358453
1134.41 0.0855005 0.0806316 1.0226
1134.51 0.0839595 0.0805801 0.723165
1134.61 0.0850946 0.0805297 0.955832
1134.71 0.0774801 0.0804806 -0.657464
1134.81 0.0774316 0.0804326 -0.652196
1134.91 0.0751277 0.0803858 -1.17698
1135.01 0.0711202 0.08034 -2.0621
1135.11 0.0766953 0.0802954 -0.791645
1135.21 0.0845416 0.0802517 0.906346
1135.31 0.0841195 0.0802092 0.81981
1135.41 0.0770974 0.0801676 -0.669897
1135.51 0.075319 0.080127 -1.06504
1135.61 0.0749529 0.0800873 -1.12698
1135.71 0.0804721 0.0800486 0.0919614
1135.81 0.0823873 0.0800108 0.506111
1135.91 0.0789392 0.0799738 -0.221727
