# Data from DA_130531_E4.h5 stim 1
# Ratiometric estimator mono-exponential fit
# Fitted model Ca = baseline+delta*exp(-(t-t0)/tau)
# nobs = 176
# number of degrees of freedom = 173
# baseline length = 7
# fit started from point 31
# estimated baseline 0.0764464 and standard error 0.000849376
# estimated delta 0.087004 and standard error 0.00360442
# estimated tau 2.62972 and standard error 0.175262
# residual sum of squares: 191.173
# RSS per degree of freedom: 1.10505
# Probability of observing a larger of equal RSS per DOF under the null hypothesis: 0.163475

# rss per degree of freedom: 1.10505

# Time    Ca  Prediction  Residual
310.015 0.0807131 0.0764464 0.574641
310.115 0.081616 0.0764464 0.707857
310.215 0.0761646 0.0764464 -0.0383692
310.315 0.0939843 0.0764464 2.2008
310.415 0.0877406 0.0764464 1.50571
310.515 0.0873674 0.0764464 1.44425
310.615 0.0876621 0.0764464 1.4835

313.115 0.154666 0.16345 -0.864446
313.215 0.166163 0.160204 0.555511
313.315 0.15451 0.157079 -0.250581
313.415 0.140183 0.15407 -1.41945
313.515 0.139821 0.151174 -1.16258
313.615 0.142217 0.148385 -0.634999
313.715 0.14246 0.145701 -0.341717
313.815 0.152413 0.143117 0.933798
313.915 0.141331 0.140629 0.0721286
314.015 0.146897 0.138235 0.864961
314.115 0.149074 0.135929 1.32684
314.215 0.147186 0.13371 1.33997
314.315 0.132899 0.131573 0.140268
314.415 0.144571 0.129516 1.53648
314.515 0.12771 0.127536 0.0188316
314.615 0.129703 0.12563 0.434762
314.715 0.118072 0.123794 -0.667869
314.815 0.119855 0.122028 -0.248133
314.915 0.11037 0.120327 -1.19184
315.015 0.114054 0.11869 -0.542652
315.115 0.121259 0.117113 0.467765
315.215 0.116782 0.115596 0.13833
315.315 0.121522 0.114135 0.834403
315.415 0.116302 0.112729 0.407309
315.515 0.127349 0.111375 1.79049
315.615 0.113084 0.110072 0.352513
315.715 0.109017 0.108817 0.0238248
315.815 0.106934 0.107609 -0.0815021
315.915 0.104168 0.106446 -0.275699
316.015 0.105683 0.105327 0.0432022
316.115 0.100511 0.104249 -0.470513
316.215 0.113061 0.103212 1.13317
316.315 0.101586 0.102213 -0.0754831
316.415 0.0971379 0.101252 -0.530128
316.515 0.102049 0.100326 0.214922
316.615 0.0887965 0.0994353 -1.39871
316.715 0.0970916 0.0985775 -0.184764
316.815 0.0858534 0.0977517 -1.57286
316.915 0.0918204 0.0969568 -0.660207
317.015 0.106169 0.0961915 1.2001
317.115 0.0934119 0.0954547 -0.261657
317.215 0.0863886 0.0947455 -1.10701
317.315 0.0995986 0.0940627 0.690476
317.415 0.0877434 0.0934053 -0.742972
317.515 0.107792 0.0927726 1.83218
317.615 0.0998124 0.0921634 0.97147
317.715 0.0834199 0.0915769 -1.10275
317.815 0.0970671 0.0910124 0.755851
317.915 0.0953121 0.0904689 0.623297
318.015 0.0956146 0.0899456 0.71899
318.115 0.0888746 0.0894419 -0.0738129
318.215 0.0898595 0.088957 0.117567
318.315 0.0826977 0.0884902 -0.795833
318.415 0.0850265 0.0880408 -0.408774
318.515 0.0782842 0.0876082 -1.26727
318.615 0.0806986 0.0871917 -0.883938
318.715 0.104369 0.0867908 2.14982
318.815 0.0840186 0.0864048 -0.322354
318.915 0.0995279 0.0860332 1.69234
319.015 0.0822215 0.0856755 -0.467986
319.115 0.094719 0.0853311 1.22573
319.215 0.0706651 0.0849996 -2.04478
319.315 0.0865777 0.0846805 0.255173
319.415 0.0743731 0.0843732 -1.42073
319.515 0.0884894 0.0840775 0.58638
319.615 0.0777803 0.0837927 -0.841907
319.715 0.0884185 0.0835186 0.642872
319.815 0.0827107 0.0832547 -0.0735728
319.915 0.0883685 0.0830007 0.711494
320.015 0.0892808 0.0827561 0.859251
320.115 0.0918149 0.0825207 1.2433
320.215 0.0861427 0.082294 0.531834
320.315 0.0852333 0.0820758 0.428474
320.415 0.0778264 0.0818658 -0.55605
320.515 0.0764393 0.0816636 -0.728258
320.615 0.0813207 0.0814689 -0.020309
320.715 0.0835123 0.0812815 0.302386
320.815 0.0922796 0.0811011 1.47381
320.915 0.0975937 0.0809274 2.12963
321.015 0.073232 0.0807602 -1.05083
321.115 0.0671806 0.0805992 -1.978
321.215 0.0907827 0.0804443 1.30509
321.315 0.0654932 0.0802951 -2.18177
321.415 0.0901386 0.0801515 1.29977
321.515 0.0827885 0.0800132 0.387054
321.615 0.0625103 0.0798802 -2.611
321.715 0.070822 0.079752 -1.26647
321.815 0.0730687 0.0796287 -0.943021
321.915 0.0733479 0.0795099 -0.886905
322.015 0.067093 0.0793956 -1.80936
322.115 0.0776974 0.0792856 -0.220695
322.215 0.0931915 0.0791796 1.81455
322.315 0.0762878 0.0790777 -0.392612
322.415 0.0733003 0.0789795 -0.809741
322.515 0.074693 0.078885 -0.589137
322.615 0.0895648 0.078794 1.41524
322.715 0.0616093 0.0787064 -2.59284
322.815 0.0804791 0.078622 0.255056
322.915 0.075143 0.0785409 -0.489522
323.015 0.090136 0.0784627 1.51285
323.115 0.086087 0.0783875 1.06846
323.215 0.0738251 0.078315 -0.639952
323.315 0.0841752 0.0782453 0.790173
323.415 0.0730234 0.0781782 -0.722571
323.515 0.0849091 0.0781136 0.91579
323.615 0.0805967 0.0780514 0.360958
323.715 0.0839699 0.0779915 0.818265
323.815 0.0759261 0.0779338 -0.289001
323.915 0.0736767 0.0778783 -0.606901
324.015 0.068255 0.0778249 -1.41079
324.115 0.0832168 0.0777735 0.746242
324.215 0.0775149 0.0777239 -0.0290727
324.315 0.0728041 0.0776763 -0.699508
324.415 0.0742125 0.0776304 -0.48903
324.515 0.0765886 0.0775862 -0.14317
324.615 0.0699916 0.0775437 -1.07574
324.715 0.0785724 0.0775027 0.149917
324.815 0.0741297 0.0774633 -0.463698
324.915 0.0804174 0.0774254 0.409649
325.015 0.0829188 0.0773888 0.749814
325.115 0.0726416 0.0773537 -0.687816
325.215 0.0786387 0.0773198 0.184708
325.315 0.0828727 0.0772872 0.769568
325.415 0.0719307 0.0772558 -0.778263
325.515 0.0715932 0.0772256 -0.826412
325.615 0.0816308 0.0771966 0.622044
325.715 0.0932932 0.0771686 2.17488
325.815 0.0752631 0.0771416 -0.25956
325.915 0.0797176 0.0771157 0.363125
326.015 0.0772062 0.0770907 0.0157758
326.115 0.076824 0.0770667 -0.034721
326.215 0.0626587 0.0770435 -2.17613
326.315 0.0726638 0.0770212 -0.629168
326.415 0.0864119 0.0769998 1.26758
326.515 0.0741495 0.0769791 -0.398238
326.615 0.0757879 0.0769593 -0.163643
326.715 0.0846475 0.0769401 1.06689
326.815 0.0768888 0.0769217 -0.00459069
326.915 0.0795743 0.076904 0.371286
327.015 0.0747849 0.0768869 -0.296476
327.115 0.0816352 0.0768704 0.660866
327.215 0.0866207 0.0768546 1.32145
327.315 0.0869237 0.0768394 1.39403
327.415 0.0802597 0.0768247 0.479547
327.515 0.0749932 0.0768106 -0.263836
327.615 0.100874 0.076797 3.06139
327.715 0.074296 0.0767839 -0.358119
327.815 0.0786555 0.0767713 0.267575
327.915 0.0654764 0.0767592 -1.67533
328.015 0.0866911 0.0767475 1.3597
328.115 0.0725927 0.0767363 -0.598053
328.215 0.0766969 0.0767255 -0.0041103
328.315 0.079505 0.0767151 0.384884
328.415 0.0788626 0.076705 0.306766
328.515 0.0839889 0.0766954 1.00994
328.615 0.0677298 0.0766861 -1.32191
328.715 0.0721513 0.0766771 -0.66513
328.815 0.0794889 0.0766685 0.404216
328.915 0.0779568 0.0766602 0.185721
329.015 0.0637319 0.0766523 -1.94223
329.115 0.0612499 0.0766446 -2.34384
329.215 0.0819509 0.0766372 0.740739
329.315 0.0824089 0.0766301 0.806733
329.415 0.0680891 0.0766232 -1.26343
329.515 0.0667992 0.0766166 -1.47003
329.615 0.0832529 0.0766103 0.927486
329.715 0.063843 0.0766041 -1.95815
329.815 0.0814443 0.0765983 0.680341
329.915 0.0782004 0.0765926 0.228229
