# Data from DA_130619_E6.h5 stim 1
# Ratiometric estimator mono-exponential fit
# Fitted model Ca = baseline+delta*exp(-(t-t0)/tau)
# nobs = 178
# number of degrees of freedom = 175
# baseline length = 7
# fit started from point 29
# estimated baseline 0.0561638 and standard error 0.000551898
# estimated delta 0.0667045 and standard error 0.00294167
# estimated tau 2.30425 and standard error 0.14914
# residual sum of squares: 188.851
# RSS per degree of freedom: 1.07915
# Probability of observing a larger of equal RSS per DOF under the null hypothesis: 0.224488

# rss per degree of freedom: 1.07915

# Time    Ca  Prediction  Residual
490.015 0.0583844 0.0561638 0.424234
490.115 0.0589703 0.0561638 0.529017
490.215 0.0603055 0.0561638 0.785665
490.315 0.0597866 0.0561638 0.662641
490.415 0.0614551 0.0561638 1.01354
490.515 0.0443192 0.0561638 -2.50248
490.615 0.0662691 0.0561638 1.85788

492.915 0.126167 0.122868 0.392074
493.015 0.113603 0.120035 -0.831609
493.115 0.122585 0.117323 0.629392
493.215 0.116559 0.114725 0.234634
493.315 0.115023 0.112238 0.355446
493.415 0.111368 0.109857 0.194319
493.515 0.100653 0.107576 -0.97404
493.615 0.106238 0.105393 0.115349
493.715 0.104509 0.103302 0.166704
493.815 0.0898969 0.1013 -1.7389
493.915 0.0996977 0.0993834 0.0432218
494.015 0.0991866 0.0975478 0.226388
494.115 0.100619 0.0957903 0.695863
494.215 0.0923347 0.0941073 -0.259724
494.315 0.106935 0.0924959 1.94936
494.415 0.0943039 0.0909529 0.488615
494.515 0.0878734 0.0894754 -0.24152
494.615 0.089519 0.0880606 0.21893
494.715 0.0937427 0.086706 1.0606
494.815 0.0911953 0.0854089 0.872299
494.915 0.0732863 0.0841668 -1.85529
495.015 0.0780637 0.0829776 -0.804817
495.115 0.0878911 0.0818388 0.944565
495.215 0.0744479 0.0807484 -1.06959
495.315 0.0792947 0.0797043 -0.0671987
495.415 0.077076 0.0787045 -0.27129
495.515 0.082249 0.0777472 0.740661
495.615 0.0772448 0.0768306 0.0678329
495.715 0.0743756 0.0759529 -0.273098
495.815 0.081951 0.0751124 1.11591
495.915 0.0735411 0.0743077 -0.126814
496.015 0.0793127 0.0735371 0.935751
496.115 0.0640311 0.0727993 -1.6222
496.215 0.0798525 0.0720928 1.26041
496.315 0.0694105 0.0714163 -0.360435
496.415 0.0668382 0.0707685 -0.719529
496.515 0.0688321 0.0701483 -0.234125
496.615 0.0716321 0.0695543 0.367758
496.715 0.0689086 0.0689856 -0.0138469
496.815 0.0613312 0.0684411 -1.33117
496.915 0.0717468 0.0679197 0.672863
497.015 0.0626139 0.0674204 -0.888927
497.115 0.0666425 0.0669424 -0.0540579
497.215 0.0642741 0.0664846 -0.398372
497.315 0.0718304 0.0660463 1.0052
497.415 0.0676273 0.0656266 0.359881
497.515 0.0637487 0.0652247 -0.280712
497.615 0.0703607 0.0648399 0.978525
497.715 0.0709046 0.0644714 1.12138
497.815 0.0637542 0.0641186 -0.0679647
497.915 0.0535858 0.0637807 -2.07335
498.015 0.0640522 0.0634573 0.109238
498.115 0.0595903 0.0631475 -0.668605
498.215 0.0635062 0.0628509 0.120893
498.315 0.060023 0.0625669 -0.487467
498.415 0.0602373 0.062295 -0.396231
498.515 0.0582077 0.0620346 -0.735019
498.615 0.0570137 0.0617853 -0.918612
498.715 0.0601054 0.0615465 -0.275568
498.815 0.0645232 0.0613179 0.574152
498.915 0.0677613 0.061099 1.21265
499.015 0.0651621 0.0608894 0.79266
499.115 0.0564516 0.0606887 -0.834689
499.215 0.0504427 0.0604966 -2.06735
499.315 0.0545136 0.0603125 -1.14065
499.415 0.0717758 0.0601364 2.06941
499.515 0.0615028 0.0599676 0.285076
499.615 0.0578991 0.0598061 -0.374917
499.715 0.0564991 0.0596514 -0.608879
499.815 0.0670698 0.0595033 1.38329
499.915 0.0640425 0.0593615 0.870435
500.015 0.0704246 0.0592257 2.01668
500.115 0.0595205 0.0590956 0.0836374
500.215 0.0646322 0.0589711 1.07039
500.315 0.0624372 0.0588519 0.679762
500.415 0.0505172 0.0587377 -1.67343
500.515 0.0469076 0.0586284 -2.43353
500.615 0.070768 0.0585237 2.14631
500.715 0.0510257 0.0584235 -1.52595
500.815 0.0584054 0.0583276 0.0152706
500.915 0.0609473 0.0582357 0.498991
501.015 0.055464 0.0581477 -0.53529
501.115 0.0541646 0.0580634 -0.793951
501.215 0.0620468 0.0579827 0.739823
501.315 0.0611265 0.0579055 0.631542
501.415 0.0554657 0.0578315 -0.475406
501.515 0.0571513 0.0577607 -0.1227
501.615 0.0626174 0.0576929 0.937674
501.715 0.0582208 0.0576279 0.112979
501.815 0.0602678 0.0575658 0.524138
501.915 0.0643257 0.0575062 1.26593
502.015 0.0641795 0.0574492 1.25535
502.115 0.0581358 0.0573946 0.146183
502.215 0.0575202 0.0573424 0.0344289
502.315 0.0590091 0.0572923 0.338075
502.415 0.0592979 0.0572444 0.400928
502.515 0.0618259 0.0571985 0.882751
502.615 0.0592442 0.0571545 0.391182
502.715 0.0643113 0.0571125 1.35341
502.815 0.0729307 0.0570722 2.82399
502.915 0.0550068 0.0570336 -0.419652
503.015 0.0631519 0.0569967 1.15383
503.115 0.0594438 0.0569613 0.478842
503.215 0.0568609 0.0569274 -0.0127645
503.315 0.0614662 0.056895 0.859538
503.415 0.0507776 0.0568639 -1.22549
503.515 0.053418 0.0568342 -0.694105
503.615 0.0590069 0.0568057 0.41892
503.715 0.0557791 0.0567785 -0.201878
503.815 0.0578863 0.0567524 0.222989
503.915 0.0526506 0.0567274 -0.82934
504.015 0.0673498 0.0567034 2.00081
504.115 0.0576894 0.0566805 0.19689
504.215 0.0566896 0.0566586 0.0059904
504.315 0.0463982 0.0566376 -2.21002
504.415 0.0570466 0.0566175 0.0854203
504.515 0.0678341 0.0565982 2.09799
504.615 0.0571891 0.0565797 0.122661
504.715 0.0587565 0.0565621 0.438398
504.815 0.0531543 0.0565452 -0.688455
504.915 0.0628118 0.056529 1.17248
505.015 0.0661364 0.0565135 1.78949
505.115 0.0643748 0.0564986 1.5154
505.215 0.0584995 0.0564844 0.403395
505.315 0.0642445 0.0564708 1.46924
505.415 0.0513623 0.0564577 -1.04897
505.515 0.0548954 0.0564453 -0.319182
505.615 0.0595255 0.0564333 0.60652
505.715 0.0545774 0.0564219 -0.376805
505.815 0.0579184 0.0564109 0.293788
505.915 0.0534721 0.0564004 -0.599707
506.015 0.0494686 0.0563904 -1.43913
506.115 0.0453289 0.0563807 -2.4477
506.215 0.0547494 0.0563715 -0.329946
506.315 0.0603131 0.0563627 0.758832
506.415 0.0538397 0.0563543 -0.520034
506.515 0.0529797 0.0563462 -0.681384
506.615 0.0557161 0.0563384 -0.126261
506.715 0.0582022 0.056331 0.364496
506.815 0.058048 0.0563239 0.338486
506.915 0.0542065 0.0563171 -0.433304
507.015 0.0605711 0.0563106 0.825538
507.115 0.0539451 0.0563044 -0.481842
507.215 0.0630258 0.0562984 1.29297
507.315 0.0541298 0.0562927 -0.446093
507.415 0.0610746 0.0562872 0.919686
507.515 0.0528899 0.056282 -0.68813
507.615 0.0453358 0.056277 -2.36701
507.715 0.044975 0.0562722 -2.50749
507.815 0.0594289 0.0562676 0.622355
507.915 0.0539513 0.0562632 -0.47353
508.015 0.0661173 0.0562589 1.83069
508.115 0.0591057 0.0562549 0.566257
508.215 0.0567753 0.056251 0.105451
508.315 0.0565202 0.0562473 0.0532414
508.415 0.054474 0.0562438 -0.355137
508.515 0.0518798 0.0562404 -0.906509
508.615 0.0526083 0.0562371 -0.760874
508.715 0.0552943 0.056234 -0.194336
508.815 0.0437811 0.056231 -2.75569
508.915 0.0516545 0.0562282 -0.943922
509.015 0.0508804 0.0562255 -1.11905
509.115 0.0538839 0.0562228 -0.478147
509.215 0.051074 0.0562203 -1.05882
509.315 0.0506556 0.0562179 -1.14784
509.415 0.051627 0.0562156 -0.953759
509.515 0.0647453 0.0562134 1.65738
509.615 0.0530614 0.0562113 -0.649943
509.715 0.0610864 0.0562093 0.971475
509.815 0.0634953 0.0562074 1.37624
509.915 0.0559935 0.0562055 -0.0425905
