# Data from DA_130619_E6.h5 stim 4
# Ratiometric estimator mono-exponential fit
# Fitted model Ca = baseline+delta*exp(-(t-t0)/tau)
# nobs = 159
# number of degrees of freedom = 156
# baseline length = 7
# fit started from point 48
# estimated baseline 0.0391716 and standard error 0.000343162
# estimated delta 0.0266107 and standard error 0.000710596
# estimated tau 3.75184 and standard error 0.218371
# residual sum of squares: 160.684
# RSS per degree of freedom: 1.03002
# Probability of observing a larger of equal RSS per DOF under the null hypothesis: 0.382003

# rss per degree of freedom: 1.03002

# Time    Ca  Prediction  Residual
1830.02 0.0393686 0.0391716 0.105418
1830.12 0.0370878 0.0391716 -1.13301
1830.21 0.0369041 0.0391716 -1.2229
1830.31 0.0409809 0.0391716 0.938532
1830.41 0.0374887 0.0391716 -0.901698
1830.51 0.0419297 0.0391716 1.43357
1830.61 0.0400314 0.0391716 0.458134

1834.81 0.0625879 0.0657822 -1.3975
1834.91 0.0652588 0.0650823 0.0761494
1835.01 0.0650862 0.0644008 0.292068
1835.11 0.0657691 0.0637373 0.88057
1835.21 0.0596073 0.0630911 -1.55458
1835.31 0.0625055 0.062462 0.0191777
1835.41 0.0597117 0.0618494 -0.937398
1835.51 0.0621718 0.061253 0.402318
1835.61 0.0590847 0.0606722 -0.713175
1835.71 0.0609082 0.0601067 0.355832
1835.81 0.0601522 0.0595561 0.266481
1835.91 0.0565736 0.0590199 -1.09786
1836.01 0.0556954 0.0584979 -1.27063
1836.11 0.0581765 0.0579896 0.0849378
1836.21 0.06204 0.0574946 1.98011
1836.31 0.0566587 0.0570127 -0.16089
1836.41 0.0549494 0.0565435 -0.748857
1836.51 0.0537626 0.0560865 -1.07556
1836.61 0.0581797 0.0556417 1.14014
1836.71 0.0604942 0.0552085 2.35402
1836.81 0.0576084 0.0547867 1.30098
1836.91 0.0544519 0.054376 0.0353054
1837.01 0.0545949 0.0539761 0.285083
1837.11 0.0542849 0.0535867 0.323992
1837.21 0.0571157 0.0532075 1.75711
1837.31 0.05198 0.0528384 -0.406686
1837.41 0.0523082 0.0524789 -0.080026
1837.51 0.0484109 0.0521289 -1.83686
1837.61 0.0531951 0.0517881 0.656204
1837.71 0.0526368 0.0514563 0.559142
1837.81 0.0559631 0.0511332 2.25011
1837.91 0.0501826 0.0508186 -0.306044
1838.01 0.0510912 0.0505122 0.275691
1838.11 0.0515992 0.050214 0.652131
1838.21 0.0498573 0.0499235 -0.0319256
1838.31 0.0486635 0.0496407 -0.476216
1838.41 0.0490136 0.0493654 -0.171917
1838.51 0.0503791 0.0490973 0.609849
1838.61 0.0518374 0.0488362 1.43958
1838.71 0.04991 0.048582 0.638365
1838.81 0.0455474 0.0483345 -1.39837
1838.91 0.0502363 0.0480935 1.0289
1839.01 0.046057 0.0478588 -0.907172
1839.11 0.0467621 0.0476303 -0.434425
1839.21 0.0489117 0.0474079 0.732448
1839.31 0.0486216 0.0471912 0.696804
1839.41 0.0489653 0.0469803 0.982869
1839.51 0.0456268 0.0467749 -0.57564
1839.61 0.0515951 0.0465749 2.43458
1839.71 0.0472693 0.0463802 0.434346
1839.81 0.0451182 0.0461906 -0.542273
1839.91 0.0456687 0.046006 -0.169209
1840.01 0.0457841 0.0458263 -0.0212166
1840.11 0.0434115 0.0456512 -1.15478
1840.21 0.0429517 0.0454808 -1.29909
1840.31 0.0430467 0.0453149 -1.16904
1840.41 0.0466064 0.0451533 0.717903
1840.51 0.0445371 0.044996 -0.231718
1840.61 0.0469373 0.0448428 1.03641
1840.71 0.0462962 0.0446936 0.801267
1840.81 0.0441942 0.0445484 -0.180514
1840.91 0.0461953 0.0444069 0.880429
1841.01 0.0425078 0.0442692 -0.906272
1841.11 0.0416788 0.0441352 -1.26325
1841.21 0.0428873 0.0440046 -0.562482
1841.31 0.0406306 0.0438775 -1.70401
1841.41 0.0433114 0.0437537 -0.226656
1841.51 0.0420076 0.0436332 -0.843351
1841.61 0.0445339 0.0435159 0.515362
1841.71 0.0421016 0.0434016 -0.660044
1841.81 0.0427876 0.0432903 -0.259466
1841.91 0.0420856 0.043182 -0.565774
1842.01 0.0423504 0.0430765 -0.378191
1842.11 0.0397756 0.0429738 -1.66515
1842.21 0.0447343 0.0428738 0.929514
1842.31 0.0407728 0.0427764 -1.05673
1842.41 0.0411101 0.0426816 -0.827705
1842.51 0.0417183 0.0425893 -0.448916
1842.61 0.0414195 0.0424994 -0.552112
1842.71 0.0434684 0.0424119 0.540393
1842.81 0.0413381 0.0423267 -0.509759
1842.91 0.0393938 0.0422437 -1.54659
1843.01 0.0396105 0.0421629 -1.33239
1843.11 0.0377775 0.0420842 -2.3321
1843.21 0.0462191 0.0420076 2.1164
1843.31 0.0390581 0.041933 -1.51111
1843.41 0.0418526 0.0418604 -0.00399081
1843.51 0.0408578 0.0417896 -0.486508
1843.61 0.0438012 0.0417208 1.07326
1843.71 0.0409464 0.0416537 -0.371412
1843.81 0.0446272 0.0415885 1.55641
1843.91 0.0419097 0.0415249 0.199631
1844.01 0.0429729 0.041463 0.781375
1844.11 0.0416239 0.0414027 0.114784
1844.21 0.0417169 0.041344 0.194399
1844.31 0.038194 0.0412869 -1.6823
1844.41 0.0421042 0.0412313 0.451217
1844.51 0.0375949 0.0411771 -1.9341
1844.61 0.0428453 0.0411243 0.876443
1844.71 0.0454152 0.041073 2.19816
1844.81 0.0406553 0.041023 -0.19199
1844.91 0.0398243 0.0409743 -0.594286
1845.01 0.0427798 0.0409269 0.953906
1845.11 0.0427222 0.0408807 0.957488
1845.21 0.0413792 0.0408357 0.286162
1845.31 0.0383061 0.040792 -1.32792
1845.41 0.043687 0.0407493 1.50432
1845.51 0.0408003 0.0407078 0.0495101
1845.61 0.0423095 0.0406674 0.853292
1845.71 0.0453 0.0406281 2.36862
1845.81 0.0387658 0.0405898 -0.954837
1845.91 0.0420108 0.0405525 0.757934
1846.01 0.0401062 0.0405162 -0.213698
1846.11 0.0415619 0.0404808 0.569622
1846.21 0.0419407 0.0404464 0.786205
1846.31 0.0363324 0.0404128 -2.19591
1846.41 0.0403166 0.0403802 -0.0333485
1846.51 0.0396685 0.0403484 -0.357246
1846.61 0.0382451 0.0403174 -1.10812
1846.71 0.0393908 0.0402873 -0.47438
1846.81 0.0383779 0.040258 -1.0012
1846.91 0.0374383 0.0402294 -1.49299
1847.01 0.0397699 0.0402016 -0.226273
1847.11 0.0413944 0.0401745 0.636523
1847.21 0.0397762 0.0401481 -0.196393
1847.31 0.0400719 0.0401224 -0.0267148
1847.41 0.0415425 0.0400974 0.748198
1847.51 0.0381062 0.0400731 -1.05354
1847.61 0.0425765 0.0400493 1.30479
1847.71 0.0413704 0.0400263 0.698049
1847.81 0.0421848 0.0400038 1.12369
1847.91 0.0401733 0.0399819 0.10102
1848.01 0.0435457 0.0399606 1.83558
1848.11 0.0378977 0.0399398 -1.09898
1848.21 0.0392453 0.0399196 -0.35747
1848.31 0.0372273 0.0398999 -1.42086
1848.41 0.0399548 0.0398808 0.0387509
1848.51 0.0426695 0.0398621 1.45633
1848.61 0.0405094 0.039844 0.348528
1848.71 0.0419181 0.0398263 1.09833
1848.81 0.0406356 0.0398091 0.431522
1848.91 0.0393233 0.0397923 -0.251197
1849.01 0.0408232 0.039776 0.545716
1849.11 0.0412953 0.0397601 0.79739
1849.21 0.0375574 0.0397446 -1.17351
1849.31 0.040504 0.0397295 0.403135
1849.41 0.0411913 0.0397148 0.767833
1849.51 0.0404016 0.0397006 0.370474
1849.61 0.0414414 0.0396866 0.909358
1849.71 0.0393445 0.0396731 -0.175308
1849.81 0.0384254 0.0396599 -0.656855
1849.91 0.0410047 0.0396471 0.701714
