# Data from DA_130619_E6.h5 stim 5
# Ratiometric estimator mono-exponential fit
# Fitted model Ca = baseline+delta*exp(-(t-t0)/tau)
# nobs = 154
# number of degrees of freedom = 151
# baseline length = 7
# fit started from point 53
# estimated baseline 0.0384446 and standard error 0.000315947
# estimated delta 0.0240136 and standard error 0.000630452
# estimated tau 3.71715 and standard error 0.216038
# residual sum of squares: 175.698
# RSS per degree of freedom: 1.16356
# Probability of observing a larger of equal RSS per DOF under the null hypothesis: 0.0825293

# rss per degree of freedom: 1.16356

# Time    Ca  Prediction  Residual
2350.01 0.0383705 0.0384446 -0.0442626
2350.11 0.0405358 0.0384446 1.22681
2350.21 0.0382662 0.0384446 -0.106605
2350.31 0.0390261 0.0384446 0.342735
2350.41 0.0361272 0.0384446 -1.40465
2350.51 0.0377997 0.0384446 -0.390927
2350.61 0.0378688 0.0384446 -0.348648

2355.31 0.0614213 0.0624581 -0.512579
2355.41 0.0631202 0.0618207 0.621716
2355.51 0.0599893 0.0612002 -0.605759
2355.61 0.0567881 0.0605962 -1.92125
2355.71 0.061995 0.0600082 0.968938
2355.81 0.058899 0.0594359 -0.269789
2355.91 0.0570621 0.0588787 -0.919184
2356.01 0.0585178 0.0583363 0.0897125
2356.11 0.057114 0.0578083 -0.35545
2356.21 0.0594488 0.0572943 1.06854
2356.31 0.05727 0.056794 0.240493
2356.41 0.0531759 0.0563069 -1.64759
2356.51 0.0549191 0.0558328 -0.466118
2356.61 0.0552419 0.0553712 -0.0667888
2356.71 0.0581706 0.0549219 1.63138
2356.81 0.0519553 0.0544846 -1.3511
2356.91 0.0583346 0.0540588 2.16408
2357.01 0.0549804 0.0536443 0.683961
2357.11 0.0531493 0.0532409 -0.0478368
2357.21 0.0551349 0.0528481 1.16433
2357.31 0.0583307 0.0524658 2.95006
2357.41 0.050764 0.0520936 -0.696125
2357.51 0.0507712 0.0517313 -0.517438
2357.61 0.0518417 0.0513787 0.245957
2357.71 0.0535181 0.0510353 1.30431
2357.81 0.0507568 0.0507011 0.0300147
2357.91 0.049028 0.0503758 -0.732363
2358.01 0.0509756 0.0500591 0.488415
2358.11 0.0485664 0.0497508 -0.637703
2358.21 0.049797 0.0494507 0.186012
2358.31 0.0475683 0.0491586 -0.87573
2358.41 0.049532 0.0488742 0.358062
2358.51 0.0475458 0.0485973 -0.570704
2358.61 0.0494472 0.0483278 0.605191
2358.71 0.0468862 0.0480655 -0.65175
2358.81 0.0522549 0.0478101 2.34711
2358.91 0.0470047 0.0475615 -0.307121
2359.01 0.0469145 0.0473195 -0.225489
2359.11 0.0469028 0.047084 -0.100709
2359.21 0.0473869 0.0468546 0.292259
2359.31 0.0459369 0.0466314 -0.38664
2359.41 0.0467735 0.0464141 0.201916
2359.51 0.0445759 0.0462026 -0.908562
2359.61 0.0489583 0.0459966 1.63806
2359.71 0.0445635 0.0457962 -0.691386
2359.81 0.04335 0.045601 -1.28677
2359.91 0.0457572 0.0454111 0.192958
2360.01 0.0446581 0.0452262 -0.321791
2360.11 0.0450523 0.0450461 0.00349586
2360.21 0.0436842 0.0448709 -0.678371
2360.31 0.0429986 0.0447003 -0.98015
2360.41 0.0486696 0.0445343 2.25085
2360.51 0.0456689 0.0443726 0.726008
2360.61 0.0454899 0.0442153 0.71316
2360.71 0.0446796 0.0440621 0.346233
2360.81 0.04462 0.043913 0.399907
2360.91 0.0431573 0.0437679 -0.342475
2361.01 0.0448821 0.0436266 0.705075
2361.11 0.0431163 0.043489 -0.214012
2361.21 0.0423839 0.0433551 -0.549289
2361.31 0.0432926 0.0432248 0.039031
2361.41 0.0429224 0.0430979 -0.100437
2361.51 0.0412782 0.0429744 -0.987904
2361.61 0.0416079 0.0428541 -0.716079
2361.71 0.0417561 0.0427371 -0.558556
2361.81 0.0392221 0.0426231 -2.00815
2361.91 0.0406875 0.0425122 -1.06321
2362.01 0.0450698 0.0424043 1.51404
2362.11 0.0409572 0.0422992 -0.774384
2362.21 0.0422438 0.0421968 0.0269402
2362.31 0.0453107 0.0420972 1.8103
2362.41 0.0414177 0.0420003 -0.340417
2362.51 0.0417862 0.0419059 -0.0689518
2362.61 0.0432772 0.041814 0.826919
2362.71 0.0396733 0.0417246 -1.20707
2362.81 0.0402369 0.0416375 -0.816903
2362.91 0.0395275 0.0415528 -1.21092
2363.01 0.040663 0.0414703 -0.466159
2363.11 0.0431569 0.04139 1.01778
2363.21 0.0434377 0.0413118 1.20356
2363.31 0.0374743 0.0412357 -2.23743
2363.41 0.0402539 0.0411616 -0.525155
2363.51 0.0403207 0.0410895 -0.44818
2363.61 0.0428432 0.0410193 1.05347
2363.71 0.039043 0.0409509 -1.13845
2363.81 0.0404014 0.0408844 -0.286937
2363.91 0.0402786 0.0408196 -0.315345
2364.01 0.0398114 0.0407566 -0.558254
2364.11 0.0422548 0.0406952 0.902084
2364.21 0.0428468 0.0406355 1.27573
2364.31 0.0440435 0.0405773 1.99823
2364.41 0.0421662 0.0405207 0.954235
2364.51 0.0399373 0.0404656 -0.313526
2364.61 0.0401021 0.040412 -0.181798
2364.71 0.0377848 0.0403597 -1.54586
2364.81 0.0396069 0.0403089 -0.411571
2364.91 0.0381591 0.0402594 -1.22898
2365.01 0.0389307 0.0402112 -0.756428
2365.11 0.0386557 0.0401643 -0.896733
2365.21 0.0397989 0.0401187 -0.191151
2365.31 0.04035 0.0400743 0.162034
2365.41 0.0411505 0.040031 0.660151
2365.51 0.0403203 0.0399889 0.19861
2365.61 0.0396571 0.0399479 -0.172225
2365.71 0.0411394 0.039908 0.727848
2365.81 0.0361456 0.0398692 -2.23806
2365.91 0.0428736 0.0398313 1.74156
2366.01 0.0382582 0.0397945 -0.901063
2366.11 0.0406019 0.0397587 0.493913
2366.21 0.0387051 0.0397238 -0.611755
2366.31 0.0362928 0.0396899 -2.06364
2366.41 0.0364222 0.0396568 -1.95166
2366.51 0.0426976 0.0396246 1.7581
2366.61 0.0391011 0.0395933 -0.2924
2366.71 0.0424458 0.0395628 1.66056
2366.81 0.0375063 0.0395331 -1.21313
2366.91 0.0389375 0.0395042 -0.334968
2367.01 0.0420618 0.0394761 1.48656
2367.11 0.0371407 0.0394487 -1.39041
2367.21 0.0436265 0.0394221 2.38189
2367.31 0.0410313 0.0393961 0.970475
2367.41 0.0424197 0.0393709 1.75288
2367.51 0.0428925 0.0393463 2.04777
2367.61 0.0391402 0.0393224 -0.107938
2367.71 0.0363144 0.0392991 -1.80878
2367.81 0.0356322 0.0392764 -2.21469
2367.91 0.0384749 0.0392543 -0.463897
2368.01 0.0419322 0.0392328 1.55727
2368.11 0.040645 0.0392119 0.846066
2368.21 0.0381428 0.0391915 -0.62761
2368.31 0.0397007 0.0391717 0.306778
2368.41 0.0432857 0.0391524 2.35939
2368.51 0.0405059 0.0391336 0.805609
2368.61 0.0426006 0.0391153 2.0188
2368.71 0.0395778 0.0390975 0.286376
2368.81 0.0381606 0.0390802 -0.552909
2368.91 0.0367861 0.0390633 -1.39025
2369.01 0.0413242 0.0390469 1.32017
2369.11 0.0386254 0.0390309 -0.239546
2369.21 0.0408691 0.0390153 1.0796
2369.31 0.0394684 0.0390002 0.273206
2369.41 0.0386668 0.0389854 -0.189587
2369.51 0.0402405 0.0389711 0.750423
2369.61 0.0383713 0.0389571 -0.345714
2369.71 0.0375178 0.0389435 -0.860303
2369.81 0.0384429 0.0389303 -0.288961
2369.91 0.0383835 0.0389174 -0.31489
