# Data from DA_130619_E6.h5 stim 3
# Ratiometric estimator mono-exponential fit
# Fitted model Ca = baseline+delta*exp(-(t-t0)/tau)
# nobs = 165
# number of degrees of freedom = 162
# baseline length = 7
# fit started from point 42
# estimated baseline 0.0437799 and standard error 0.000314362
# estimated delta 0.034598 and standard error 0.00100593
# estimated tau 2.92173 and standard error 0.153886
# residual sum of squares: 161.979
# RSS per degree of freedom: 0.999873
# Probability of observing a larger of equal RSS per DOF under the null hypothesis: 0.485679

# rss per degree of freedom: 0.999873

# Time    Ca  Prediction  Residual
1355.02 0.0412228 0.0437799 -1.14202
1355.12 0.0436744 0.0437799 -0.0466129
1355.21 0.0453261 0.0437799 0.667424
1355.31 0.0466945 0.0437799 1.24105
1355.41 0.0438029 0.0437799 0.0101172
1355.51 0.0467481 0.0437799 1.27468
1355.61 0.0400423 0.0437799 -1.71158

1359.21 0.0741387 0.078378 -1.4397
1359.31 0.0795288 0.0772138 0.763685
1359.41 0.0773581 0.0760889 0.423853
1359.51 0.076329 0.0750018 0.444177
1359.61 0.0744305 0.0739512 0.163061
1359.71 0.0695245 0.0729361 -1.22213
1359.81 0.0739214 0.071955 0.676215
1359.91 0.0708615 0.071007 -0.0520485
1360.01 0.0737539 0.0700909 1.26675
1360.11 0.0665977 0.0692056 -0.960783
1360.21 0.0705069 0.0683501 0.768835
1360.31 0.0714356 0.0675234 1.39222
1360.41 0.0723419 0.0667245 1.93527
1360.51 0.0648218 0.0659525 -0.418906
1360.61 0.0624354 0.0652064 -1.04053
1360.71 0.063844 0.0644855 -0.238092
1360.81 0.0642621 0.0637888 0.177523
1360.91 0.0586646 0.0631155 -1.72386
1361.01 0.0588394 0.062465 -1.38673
1361.11 0.06056 0.0618363 -0.494505
1361.21 0.0624274 0.0612287 0.45225
1361.31 0.0585734 0.0606416 -0.802383
1361.41 0.059378 0.0600743 -0.271533
1361.51 0.0612851 0.059526 0.67114
1361.61 0.0644277 0.0589962 2.02184
1361.71 0.0597278 0.0584842 0.477872
1361.81 0.0579768 0.0579894 -0.00494806
1361.91 0.0538498 0.0575113 -1.48365
1362.01 0.0532804 0.0570493 -1.5149
1362.11 0.0526305 0.0566028 -1.60602
1362.21 0.0578599 0.0561714 0.659843
1362.31 0.0576014 0.0557544 0.723498
1362.41 0.0543697 0.0553515 -0.389855
1362.51 0.0606886 0.0549622 2.2236
1362.61 0.0517098 0.0545859 -1.188
1362.71 0.0530881 0.0542223 -0.459864
1362.81 0.0520867 0.053871 -0.728361
1362.91 0.0552238 0.0535314 0.6759
1363.01 0.0550655 0.0532033 0.741951
1363.11 0.0529466 0.0528863 0.0243234
1363.21 0.0520527 0.0525799 -0.215171
1363.31 0.0533813 0.0522838 0.446546
1363.41 0.0510787 0.0519976 -0.382607
1363.51 0.0520373 0.0517211 0.127888
1363.61 0.0530892 0.0514539 0.665819
1363.71 0.0521745 0.0511957 0.398483
1363.81 0.0523313 0.0509462 0.565108
1363.91 0.0512576 0.0507051 0.226608
1364.01 0.0533156 0.0504721 1.15436
1364.11 0.049566 0.0502469 -0.288065
1364.21 0.0515429 0.0500293 0.623489
1364.31 0.05306 0.049819 1.34402
1364.41 0.0452775 0.0496158 -1.92477
1364.51 0.0551734 0.0494195 2.32002
1364.61 0.0500839 0.0492297 0.363365
1364.71 0.0493943 0.0490463 0.145858
1364.81 0.0462222 0.0488691 -1.14216
1364.91 0.0480557 0.0486979 -0.278118
1365.01 0.0478522 0.0485324 -0.28989
1365.11 0.0492549 0.0483725 0.380271
1365.21 0.052905 0.048218 1.93614
1365.31 0.0451023 0.0480687 -1.29558
1365.41 0.0481954 0.0479243 0.114764
1365.51 0.0451405 0.0477849 -1.13694
1365.61 0.047236 0.0476501 -0.177893
1365.71 0.0507498 0.0475199 1.34577
1365.81 0.0467806 0.0473941 -0.265031
1365.91 0.0417047 0.0472725 -2.45626
1366.01 0.0485846 0.047155 0.604973
1366.11 0.0460211 0.0470414 -0.44246
1366.21 0.0480322 0.0469317 0.457451
1366.31 0.0445215 0.0468256 -1.00867
1366.41 0.0466697 0.0467231 -0.0229013
1366.51 0.0483345 0.0466241 0.736775
1366.61 0.0453739 0.0465284 -0.500786
1366.71 0.0430929 0.0464359 -1.46323
1366.81 0.0446864 0.0463466 -0.725974
1366.91 0.0449262 0.0462602 -0.578358
1367.01 0.046482 0.0461767 0.132168
1367.11 0.0504274 0.0460961 1.79682
1367.21 0.0461203 0.0460182 0.0440244
1367.31 0.0452907 0.0459429 -0.288236
1367.41 0.0493777 0.0458701 1.50407
1367.51 0.0465853 0.0457997 0.339062
1367.61 0.046546 0.0457318 0.348689
1367.71 0.0422331 0.0456661 -1.54383
1367.81 0.0455405 0.0456026 -0.0269567
1367.91 0.0441561 0.0455413 -0.614458
1368.01 0.0521457 0.045482 2.71934
1368.11 0.0452241 0.0454248 -0.0888222
1368.21 0.0435126 0.0453694 -0.818924
1368.31 0.0426364 0.0453159 -1.18314
1368.41 0.0420645 0.0452643 -1.40815
1368.51 0.0463715 0.0452143 0.496272
1368.61 0.0486659 0.0451661 1.49602
1368.71 0.0453011 0.0451194 0.0793898
1368.81 0.0455 0.0450743 0.186783
1368.91 0.0485777 0.0450308 1.50948
1369.01 0.0438589 0.0449887 -0.497874
1369.11 0.045047 0.044948 0.0432505
1369.21 0.0428888 0.0449087 -0.898114
1369.31 0.0464888 0.0448707 0.70647
1369.41 0.0437463 0.044834 -0.483986
1369.51 0.0436656 0.0447986 -0.504399
1369.61 0.0445389 0.0447643 -0.0974969
1369.71 0.0433319 0.0447312 -0.619298
1369.81 0.0445927 0.0446992 -0.0462705
1369.91 0.0427934 0.0446682 -0.820107
1370.01 0.0477828 0.0446384 1.34027
1370.11 0.0460136 0.0446095 0.609185
1370.21 0.0467627 0.0445816 0.955088
1370.31 0.0460456 0.0445546 0.65101
1370.41 0.0421114 0.0445285 -1.08582
1370.51 0.0439161 0.0445033 -0.264576
1370.61 0.0401209 0.044479 -1.974
1370.71 0.0474422 0.0444555 1.2869
1370.81 0.0449199 0.0444327 0.210152
1370.91 0.0456145 0.0444108 0.526054
1371.01 0.0417313 0.0443895 -1.17577
1371.11 0.044995 0.044369 0.278955
1371.21 0.0455812 0.0443492 0.536591
1371.31 0.0429684 0.0443301 -0.609659
1371.41 0.0401103 0.0443115 -1.89927
1371.51 0.0423361 0.0442937 -0.86489
1371.61 0.042528 0.0442764 -0.782932
1371.71 0.0460581 0.0442597 0.774205
1371.81 0.0476469 0.0442435 1.45111
1371.91 0.0417224 0.0442279 -1.13879
1372.01 0.0472964 0.0442129 1.33849
1372.11 0.0420578 0.0441983 -0.959824
1372.21 0.0472457 0.0441842 1.32153
1372.31 0.0467928 0.0441706 1.13824
1372.41 0.0462364 0.0441575 0.90078
1372.51 0.043316 0.0441448 -0.370371
1372.61 0.0416678 0.0441325 -1.10533
1372.71 0.0439105 0.0441206 -0.0932161
1372.81 0.0430891 0.0441092 -0.452101
1372.91 0.0456868 0.0440981 0.682853
1373.01 0.0450467 0.0440874 0.424171
1373.11 0.043814 0.044077 -0.117509
1373.21 0.0460029 0.044067 0.845276
1373.31 0.0473019 0.0440574 1.37246
1373.41 0.0435269 0.044048 -0.230754
1373.51 0.0472836 0.044039 1.40347
1373.61 0.043827 0.0440303 -0.0895293
1373.71 0.0430337 0.0440219 -0.439418
1373.81 0.0388813 0.0440137 -2.38406
1373.91 0.0468454 0.0440059 1.23437
1374.01 0.0418265 0.0439983 -0.968186
1374.11 0.0452551 0.0439909 0.555962
1374.21 0.0465715 0.0439838 1.12206
1374.31 0.0437041 0.043977 -0.118317
1374.41 0.0431252 0.0439703 -0.373503
1374.51 0.0459034 0.0439639 0.850581
1374.61 0.0445453 0.0439577 0.257337
1374.71 0.0433998 0.0439517 -0.244841
1374.81 0.0423614 0.043946 -0.70189
1374.91 0.0414558 0.0439404 -1.11135
