# Data from DA_130128_E4.h5 stim 2
# Ratiometric estimator mono-exponential fit
# Fitted model Ca = baseline+delta*exp(-(t-t0)/tau)
# nobs = 178
# number of degrees of freedom = 175
# baseline length = 7
# fit started from point 29
# estimated baseline 0.0334017 and standard error 0.000337176
# estimated delta 0.0351155 and standard error 0.00143021
# estimated tau 2.4886 and standard error 0.165598
# residual sum of squares: 187.229
# RSS per degree of freedom: 1.06988
# Probability of observing a larger of equal RSS per DOF under the null hypothesis: 0.249999

# rss per degree of freedom: 1.06988

# Time    Ca  Prediction  Residual
2380.01 0.0388268 0.0334017 1.75752
2380.11 0.0315749 0.0334017 -0.615396
2380.21 0.0342123 0.0334017 0.2688
2380.31 0.0392415 0.0334017 1.84625
2380.41 0.0363483 0.0334017 0.963668
2380.51 0.0368757 0.0334017 1.12434
2380.61 0.0297896 0.0334017 -1.24988

2382.91 0.0692145 0.0685172 0.177582
2383.01 0.0728906 0.0671341 1.4279
2383.11 0.0736102 0.0658055 1.9246
2383.21 0.0688115 0.0645292 1.10612
2383.31 0.0685917 0.0633032 1.35821
2383.41 0.0619115 0.0621255 -0.0566702
2383.51 0.0602809 0.0609942 -0.19498
2383.61 0.054755 0.0599074 -1.44036
2383.71 0.0585869 0.0588634 -0.0764823
2383.81 0.0526738 0.0578606 -1.4755
2383.91 0.0563452 0.0568972 -0.153913
2384.01 0.054909 0.0559718 -0.298336
2384.11 0.0520695 0.0550829 -0.895159
2384.21 0.055683 0.0542289 0.40377
2384.31 0.0540258 0.0534086 0.17441
2384.41 0.0504572 0.0526206 -0.638998
2384.51 0.0560159 0.0518636 1.15269
2384.61 0.0500909 0.0511365 -0.302598
2384.71 0.0486024 0.050438 -0.554494
2384.81 0.0515738 0.049767 0.528188
2384.91 0.0442228 0.0491224 -1.50996
2385.01 0.0436581 0.0485032 -1.47768
2385.11 0.0427722 0.0479084 -1.61969
2385.21 0.0489909 0.047337 0.492013
2385.31 0.0391254 0.0467882 -2.44974
2385.41 0.0437633 0.0462609 -0.760003
2385.51 0.0452578 0.0457544 -0.151371
2385.61 0.0423237 0.0452679 -0.908512
2385.71 0.0419268 0.0448005 -0.891039
2385.81 0.0462221 0.0443516 0.572936
2385.91 0.0422785 0.0439203 -0.504361
2386.01 0.0473581 0.043506 1.13187
2386.11 0.039819 0.043108 -1.04256
2386.21 0.0472099 0.0427257 1.34329
2386.31 0.0434425 0.0423585 0.334933
2386.41 0.0467778 0.0420057 1.45267
2386.51 0.043276 0.0416668 0.497007
2386.61 0.0447465 0.0413413 1.04658
2386.71 0.035401 0.0410286 -1.83353
2386.81 0.0401437 0.0407282 -0.185234
2386.91 0.0381954 0.0404396 -0.729047
2387.01 0.0418788 0.0401624 0.536319
2387.11 0.0389331 0.0398961 -0.311013
2387.21 0.036469 0.0396403 -1.02065
2387.31 0.0402286 0.0393946 0.261741
2387.41 0.041646 0.0391586 0.76833
2387.51 0.0340065 0.0389318 -1.64925
2387.61 0.0355917 0.038714 -1.02474
2387.71 0.0417191 0.0385048 1.00778
2387.81 0.0395237 0.0383038 0.392097
2387.91 0.0399374 0.0381107 0.573168
2388.01 0.0409725 0.0379252 0.956293
2388.11 0.0389981 0.0377471 0.403334
2388.21 0.0360698 0.0375759 -0.493114
2388.31 0.0414403 0.0374115 1.2763
2388.41 0.040172 0.0372536 0.943762
2388.51 0.0397499 0.0371019 0.826383
2388.61 0.0374483 0.0369561 0.159022
2388.71 0.0339871 0.0368161 -0.931084
2388.81 0.0382786 0.0366816 0.511493
2388.91 0.0372335 0.0365524 0.218632
2389.01 0.0444105 0.0364284 2.45931
2389.11 0.0398683 0.0363091 1.13681
2389.21 0.038324 0.0361946 0.68034
2389.31 0.0365759 0.0360846 0.159111
2389.41 0.0409624 0.0359789 1.59942
2389.51 0.0380986 0.0358774 0.70679
2389.61 0.0416241 0.0357799 1.83314
2389.71 0.0338506 0.0356863 -0.603115
2389.81 0.0386249 0.0355963 0.976937
2389.91 0.0424725 0.0355098 2.16432
2390.01 0.0374222 0.0354268 0.653992
2390.11 0.0399955 0.035347 1.50129
2390.21 0.0400772 0.0352704 1.54298
2390.31 0.0344566 0.0351968 -0.24948
2390.41 0.0330949 0.0351261 -0.680559
2390.51 0.0368215 0.0350582 0.571232
2390.61 0.0374237 0.0349929 0.788043
2390.71 0.0328228 0.0349303 -0.702163
2390.81 0.0353923 0.0348701 0.173266
2390.91 0.0339292 0.0348122 -0.28767
2391.01 0.0359738 0.0347567 0.395945
2391.11 0.0300138 0.0347033 -1.61211
2391.21 0.0345381 0.034652 -0.0370382
2391.31 0.0382347 0.0346028 1.17951
2391.41 0.0370058 0.0345555 0.794911
2391.51 0.0365794 0.03451 0.684372
2391.61 0.0312547 0.0344664 -1.09036
2391.71 0.0342183 0.0344244 -0.0672457
2391.81 0.0384263 0.0343842 1.30103
2391.91 0.0363022 0.0343455 0.643358
2392.01 0.027316 0.0343083 -2.47602
2392.11 0.0394139 0.0342726 1.64802
2392.21 0.0289817 0.0342383 -1.79459
2392.31 0.031863 0.0342053 -0.805513
2392.41 0.0352783 0.0341737 0.366692
2392.51 0.0371212 0.0341433 0.956104
2392.61 0.0376433 0.0341141 1.13667
2392.71 0.0333761 0.034086 -0.238912
2392.81 0.0360501 0.0340591 0.649497
2392.91 0.0388426 0.0340332 1.58732
2393.01 0.0343573 0.0340083 0.115101
2393.11 0.0363486 0.0339844 0.783756
2393.21 0.0284131 0.0339614 -1.91683
2393.31 0.0355488 0.0339394 0.523156
2393.41 0.0311619 0.0339182 -0.913049
2393.51 0.0336289 0.0338979 -0.0901524
2393.61 0.0321709 0.0338783 -0.580435
2393.71 0.0346194 0.0338596 0.251276
2393.81 0.0274345 0.0338415 -2.27301
2393.91 0.0366947 0.0338242 0.932774
2394.01 0.0378943 0.0338076 1.32968
2394.11 0.0324241 0.0337916 -0.463586
2394.21 0.0339552 0.0337762 0.060579
2394.31 0.0353769 0.0337615 0.541703
2394.41 0.0356886 0.0337473 0.646882
2394.51 0.033942 0.0337337 0.0703083
2394.61 0.0299541 0.0337206 -1.2923
2394.71 0.0337937 0.033708 0.0287912
2394.81 0.0322826 0.033696 -0.478393
2394.91 0.029014 0.0336844 -1.58101
2395.01 0.0359005 0.0336732 0.735156
2395.11 0.0328138 0.0336626 -0.289334
2395.21 0.0327684 0.0336523 -0.301042
2395.31 0.0312651 0.0336424 -0.818909
2395.41 0.0297029 0.0336329 -1.37434
2395.51 0.0298624 0.0336238 -1.32857
2395.61 0.0335935 0.0336151 -0.00733001
2395.71 0.0319831 0.0336067 -0.557887
2395.81 0.0330473 0.0335986 -0.184701
2395.91 0.0348533 0.0335908 0.422336
2396.01 0.0315049 0.0335834 -0.715384
2396.11 0.0307494 0.0335762 -0.98119
2396.21 0.0327278 0.0335694 -0.287685
2396.31 0.0318204 0.0335627 -0.592501
2396.41 0.0354124 0.0335564 0.614367
2396.51 0.0380204 0.0335503 1.43756
2396.61 0.0338581 0.0335445 0.105517
2396.71 0.0369622 0.0335388 1.11812
2396.81 0.0372827 0.0335334 1.21807
2396.91 0.0346311 0.0335282 0.369962
2397.01 0.0307402 0.0335233 -0.944699
2397.11 0.0327107 0.0335185 -0.27026
2397.21 0.0261176 0.0335139 -2.59964
2397.31 0.035822 0.0335094 0.76668
2397.41 0.0367931 0.0335052 1.07396
2397.51 0.0320699 0.0335011 -0.480456
2397.61 0.0364966 0.0334972 0.995212
2397.71 0.0323175 0.0334934 -0.404676
2397.81 0.0357026 0.0334898 0.739034
2397.91 0.0367959 0.0334864 1.08243
2398.01 0.0300058 0.033483 -1.19209
2398.11 0.0351354 0.0334798 0.555768
2398.21 0.028532 0.0334767 -1.73409
2398.31 0.0336469 0.0334738 0.0575308
2398.41 0.0283568 0.0334709 -1.78246
2398.51 0.0381015 0.0334682 1.50975
2398.61 0.033683 0.0334656 0.0731629
2398.71 0.0319807 0.0334631 -0.509831
2398.81 0.0325101 0.0334607 -0.323442
2398.91 0.0348277 0.0334583 0.464172
2399.01 0.0328322 0.0334561 -0.209542
2399.11 0.0317246 0.033454 -0.592522
2399.21 0.0312692 0.0334519 -0.740987
2399.31 0.0326822 0.0334499 -0.254096
2399.41 0.0321332 0.033448 -0.448568
2399.51 0.0290132 0.0334462 -1.55836
2399.61 0.0319042 0.0334444 -0.524542
2399.71 0.0286947 0.0334428 -1.67524
2399.81 0.0286185 0.0334411 -1.67842
2399.91 0.0352324 0.0334396 0.593242
