# Data from DA_130128_E4.h5 stim 4
# Ratiometric estimator mono-exponential fit
# Fitted model Ca = baseline+delta*exp(-(t-t0)/tau)
# nobs = 169
# number of degrees of freedom = 166
# baseline length = 7
# fit started from point 38
# estimated baseline 0.0260209 and standard error 0.000214631
# estimated delta 0.025747 and standard error 0.00078001
# estimated tau 2.56488 and standard error 0.135284
# residual sum of squares: 180.856
# RSS per degree of freedom: 1.08949
# Probability of observing a larger of equal RSS per DOF under the null hypothesis: 0.203685

# rss per degree of freedom: 1.08949

# Time    Ca  Prediction  Residual
3200.01 0.0222176 0.0260209 -2.22823
3200.11 0.0245405 0.0260209 -0.854438
3200.21 0.0220581 0.0260209 -2.31776
3200.31 0.0229135 0.0260209 -1.78265
3200.41 0.0243997 0.0260209 -0.934466
3200.51 0.0229331 0.0260209 -1.80929
3200.61 0.0247611 0.0260209 -0.72925

3203.81 0.048295 0.0517679 -1.65944
3203.91 0.0532741 0.0507834 1.13256
3204.01 0.047792 0.0498365 -0.978114
3204.11 0.0509851 0.0489258 0.971649
3204.21 0.0495738 0.04805 0.711654
3204.31 0.0501914 0.0472076 1.41523
3204.41 0.0448645 0.0463975 -0.743638
3204.51 0.0430074 0.0456184 -1.2807
3204.61 0.0464135 0.044869 0.739176
3204.71 0.0436958 0.0441483 -0.226181
3204.81 0.0474495 0.0434551 1.94131
3204.91 0.0419119 0.0427885 -0.438608
3205.01 0.0432036 0.0421473 0.524192
3205.11 0.039463 0.0415307 -1.06538
3205.21 0.0401439 0.0409376 -0.406399
3205.31 0.0395827 0.0403672 -0.404473
3205.41 0.0411932 0.0398187 0.681643
3205.51 0.0387587 0.0392911 -0.273762
3205.61 0.0416578 0.0387836 1.43149
3205.71 0.0393832 0.0382956 0.558387
3205.81 0.0418002 0.0378263 2.01793
3205.91 0.0389366 0.0373748 0.795007
3206.01 0.0350983 0.0369407 -0.955023
3206.11 0.0342505 0.0365231 -1.20854
3206.21 0.0358505 0.0361216 -0.14234
3206.31 0.0346414 0.0357353 -0.575015
3206.41 0.0339676 0.0353639 -0.745084
3206.51 0.031913 0.0350066 -1.66754
3206.61 0.0337428 0.034663 -0.490391
3206.71 0.0349117 0.0343326 0.303413
3206.81 0.0314575 0.0340147 -1.38622
3206.91 0.034822 0.0337091 0.591155
3207.01 0.0320288 0.0334151 -0.745725
3207.11 0.0319017 0.0331323 -0.663018
3207.21 0.0314838 0.0328604 -0.74147
3207.31 0.0311041 0.0325989 -0.8092
3207.41 0.0327716 0.0323474 0.225781
3207.51 0.032563 0.0321055 0.249846
3207.61 0.0332195 0.0318728 0.726053
3207.71 0.0310116 0.031649 -0.344539
3207.81 0.0314354 0.0314338 0.000846866
3207.91 0.0319769 0.0312268 0.40366
3208.01 0.0338959 0.0310278 1.51793
3208.11 0.0284451 0.0308363 -1.32212
3208.21 0.0315465 0.0306522 0.48393
3208.31 0.0327813 0.0304751 1.2531
3208.41 0.0309137 0.0303048 0.335714
3208.51 0.0328939 0.030141 1.46887
3208.61 0.0315503 0.0299834 0.850491
3208.71 0.0272239 0.0298319 -1.46338
3208.81 0.0291807 0.0296862 -0.277829
3208.91 0.0294317 0.029546 -0.0631397
3209.01 0.0306558 0.0294112 0.679786
3209.11 0.0245639 0.0292816 -2.71928
3209.21 0.0296711 0.0291569 0.281106
3209.31 0.0307778 0.029037 0.950966
3209.41 0.026179 0.0289217 -1.57124
3209.51 0.0299506 0.0288107 0.622875
3209.61 0.0276725 0.0287041 -0.583123
3209.71 0.0290995 0.0286015 0.273338
3209.81 0.0291566 0.0285028 0.361961
3209.91 0.0289064 0.0284079 0.278013
3210.01 0.0274081 0.0283166 -0.513962
3210.11 0.0290766 0.0282288 0.475203
3210.21 0.0299306 0.0281444 0.991425
3210.31 0.0296638 0.0280632 0.89458
3210.41 0.0266908 0.0279851 -0.73027
3210.51 0.027291 0.02791 -0.34636
3210.61 0.030542 0.0278378 1.47907
3210.71 0.0253206 0.0277683 -1.39203
3210.81 0.0265667 0.0277015 -0.64295
3210.91 0.0251335 0.0276372 -1.42659
3211.01 0.0293729 0.0275754 0.986531
3211.11 0.0267699 0.027516 -0.421647
3211.21 0.0266956 0.0274588 -0.421461
3211.31 0.0285475 0.0274038 0.637104
3211.41 0.0277267 0.0273509 0.210576
3211.51 0.0308608 0.0273001 1.96823
3211.61 0.0252392 0.0272512 -1.13621
3211.71 0.0267653 0.0272041 -0.245885
3211.81 0.0269646 0.0271589 -0.109603
3211.91 0.0253475 0.0271154 -1.01722
3212.01 0.0276651 0.0270735 0.335887
3212.11 0.027548 0.0270333 0.287202
3212.21 0.0281366 0.0269946 0.63326
3212.31 0.0281481 0.0269573 0.669871
3212.41 0.0290506 0.0269215 1.19986
3212.51 0.0273221 0.0268871 0.24342
3212.61 0.0270665 0.026854 0.118274
3212.71 0.0255058 0.0268221 -0.746132
3212.81 0.0263494 0.0267915 -0.248394
3212.91 0.0269245 0.026762 0.0930821
3213.01 0.0257503 0.0267337 -0.549231
3213.11 0.0287688 0.0267064 1.16227
3213.21 0.0278899 0.0266802 0.676164
3213.31 0.025688 0.026655 -0.545101
3213.41 0.0259468 0.0266307 -0.382671
3213.51 0.0275609 0.0266074 0.531821
3213.61 0.0313513 0.026585 2.62895
3213.71 0.0308214 0.0265634 2.36052
3213.81 0.0278129 0.0265427 0.717516
3213.91 0.0241477 0.0265227 -1.37252
3214.01 0.0256178 0.0265035 -0.504769
3214.11 0.0233768 0.0264851 -1.80843
3214.21 0.0279811 0.0264673 0.849701
3214.31 0.0280423 0.0264503 0.904166
3214.41 0.0274413 0.0264338 0.566247
3214.51 0.0267051 0.026418 0.162659
3214.61 0.0222761 0.0264029 -2.40056
3214.71 0.0291223 0.0263883 1.52768
3214.81 0.0249833 0.0263742 -0.789719
3214.91 0.0256633 0.0263607 -0.389445
3215.01 0.0273487 0.0263477 0.563146
3215.11 0.025164 0.0263352 -0.667801
3215.21 0.0294059 0.0263232 1.73135
3215.31 0.02545 0.0263116 -0.491937
3215.41 0.0269825 0.0263005 0.386619
3215.51 0.0295197 0.0262898 1.82269
3215.61 0.0259484 0.0262795 -0.1888
3215.71 0.0278656 0.0262696 0.905012
3215.81 0.0235577 0.0262601 -1.53712
3215.91 0.0256767 0.026251 -0.326152
3216.01 0.0285124 0.0262422 1.25481
3216.11 0.0289589 0.0262337 1.53315
3216.21 0.025901 0.0262256 -0.185584
3216.31 0.0250684 0.0262178 -0.656789
3216.41 0.0267674 0.0262102 0.314367
3216.51 0.0266399 0.026203 0.243605
3216.61 0.0250892 0.026196 -0.634425
3216.71 0.0279017 0.0261893 0.948984
3216.81 0.0225624 0.0261829 -2.11369
3216.91 0.0242044 0.0261767 -1.13333
3217.01 0.0274099 0.0261707 0.689726
3217.11 0.0284368 0.026165 1.26318
3217.21 0.0239575 0.0261595 -1.27292
3217.31 0.0266281 0.0261542 0.271488
3217.41 0.0264472 0.0261491 0.167056
3217.51 0.0281096 0.0261442 1.09992
3217.61 0.0262536 0.0261395 0.0642642
3217.71 0.0276542 0.0261349 0.851498
3217.81 0.025764 0.0261306 -0.208816
3217.91 0.024671 0.0261264 -0.830674
3218.01 0.0241951 0.0261224 -1.10455
3218.11 0.0246697 0.0261185 -0.842096
3218.21 0.0254591 0.0261147 -0.371575
3218.31 0.0270568 0.0261112 0.52577
3218.41 0.0274828 0.0261077 0.772449
3218.51 0.0262271 0.0261044 0.0697958
3218.61 0.0278897 0.0261012 0.998803
3218.71 0.0267655 0.0260981 0.376869
3218.81 0.0304509 0.0260952 2.4085
3218.91 0.0271705 0.0260923 0.610127
3219.01 0.0245325 0.0260896 -0.88608
3219.11 0.0255489 0.026087 -0.305747
3219.21 0.0284658 0.0260844 1.32473
3219.31 0.0278271 0.026082 0.963501
3219.41 0.0255748 0.0260797 -0.287779
3219.51 0.026657 0.0260774 0.327594
3219.61 0.0271897 0.0260753 0.624117
3219.71 0.0255221 0.0260732 -0.315969
3219.81 0.0231644 0.0260712 -1.69259
3219.91 0.0293521 0.0260693 1.80053
