# Data from DA_130128_E4.h5 stim 1
# Ratiometric estimator mono-exponential fit
# Fitted model Ca = baseline+delta*exp(-(t-t0)/tau)
# nobs = 181
# number of degrees of freedom = 178
# baseline length = 7
# fit started from point 26
# estimated baseline 0.0323933 and standard error 0.000407219
# estimated delta 0.039938 and standard error 0.00308493
# estimated tau 1.2526 and standard error 0.137453
# residual sum of squares: 190.174
# RSS per degree of freedom: 1.06839
# Probability of observing a larger of equal RSS per DOF under the null hypothesis: 0.252635

# rss per degree of freedom: 1.06839

# Time    Ca  Prediction  Residual
1995.02 0.0300267 0.0323933 -0.49085
1995.12 0.0310597 0.0323933 -0.284251
1995.21 0.0300457 0.0323933 -0.512802
1995.31 0.0381694 0.0323933 1.15272
1995.41 0.0311331 0.0323933 -0.272395
1995.51 0.0350447 0.0323933 0.547081
1995.61 0.0261379 0.0323933 -1.40118

1997.61 0.0710734 0.0723313 -0.198487
1997.71 0.0655622 0.0692669 -0.618399
1997.81 0.0680117 0.0664376 0.265694
1997.91 0.0604281 0.0638253 -0.579978
1998.01 0.0778661 0.0614136 2.5196
1998.11 0.0630292 0.0591868 0.639943
1998.21 0.0565898 0.057131 -0.0950061
1998.31 0.051991 0.0552328 -0.587333
1998.41 0.0521607 0.0534803 -0.239853
1998.51 0.0456112 0.0518623 -1.18036
1998.61 0.0472203 0.0503685 -0.599058
1998.71 0.0505651 0.0489892 0.297152
1998.81 0.0469905 0.0477158 -0.13898
1998.91 0.0365116 0.0465401 -2.05062
1999.01 0.0591671 0.0454546 2.39734
1999.11 0.0485198 0.0444524 0.791248
1999.21 0.043848 0.0435271 0.0628497
1999.31 0.044605 0.0426728 0.376
1999.41 0.056634 0.0418841 2.61828
1999.51 0.0466202 0.0411559 1.0498
1999.61 0.039375 0.0404835 -0.221577
1999.71 0.0339658 0.0398627 -1.2461
1999.81 0.0350915 0.0392896 -0.873296
1999.91 0.0352993 0.0387605 -0.741346
2000.01 0.0362621 0.0382719 -0.413504
2000.11 0.0362012 0.0378208 -0.337516
2000.21 0.0375874 0.0374044 0.0377737
2000.31 0.0361595 0.0370199 -0.180866
2000.41 0.0358743 0.0366649 -0.160357
2000.51 0.0312082 0.0363371 -1.10886
2000.61 0.0343019 0.0360345 -0.356992
2000.71 0.0369637 0.0357551 0.249467
2000.81 0.0376804 0.0354972 0.447702
2000.91 0.0270023 0.035259 -1.78847
2001.01 0.0320754 0.0350391 -0.626095
2001.11 0.0367536 0.0348361 0.398166
2001.21 0.0337068 0.0346487 -0.199432
2001.31 0.0349076 0.0344756 0.0881712
2001.41 0.0352582 0.0343158 0.19333
2001.51 0.0400092 0.0341683 1.1732
2001.61 0.0415768 0.0340321 1.5601
2001.71 0.0372784 0.0339064 0.690694
2001.81 0.041259 0.0337903 1.55351
2001.91 0.0308618 0.0336831 -0.609645
2002.01 0.0247442 0.0335841 -1.97974
2002.11 0.026683 0.0334928 -1.49769
2002.21 0.0359889 0.0334084 0.529177
2002.31 0.0376758 0.0333305 0.895737
2002.41 0.0372997 0.0332586 0.824453
2002.51 0.0377472 0.0331922 0.962644
2002.61 0.0278083 0.0331309 -1.20468
2002.71 0.0422948 0.0330743 1.82713
2002.81 0.0423571 0.033022 1.93773
2002.91 0.0284147 0.0329738 -0.992963
2003.01 0.0426227 0.0329293 1.90786
2003.11 0.0306406 0.0328881 -0.485348
2003.21 0.0380808 0.0328502 1.07527
2003.31 0.0244285 0.0328151 -1.89743
2003.41 0.0370752 0.0327827 0.909569
2003.51 0.0297335 0.0327529 -0.667783
2003.61 0.0338084 0.0327253 0.231328
2003.71 0.027848 0.0326998 -1.07232
2003.81 0.0386735 0.0326763 1.22832
2003.91 0.0412528 0.0326546 1.73828
2004.01 0.0308606 0.0326345 -0.384365
2004.11 0.0276368 0.032616 -1.11867
2004.21 0.0277704 0.0325989 -1.07257
2004.31 0.0445442 0.0325832 2.36658
2004.41 0.0304319 0.0325686 -0.465783
2004.51 0.0245838 0.0325551 -1.78622
2004.61 0.031251 0.0325427 -0.284798
2004.71 0.0366845 0.0325313 0.860749
2004.81 0.0320257 0.0325207 -0.104955
2004.91 0.0319764 0.0325109 -0.115531
2005.01 0.0382985 0.0325019 1.20252
2005.11 0.0303 0.0324935 -0.496475
2005.21 0.0351795 0.0324858 0.580254
2005.31 0.0342851 0.0324787 0.376717
2005.41 0.033297 0.0324722 0.178995
2005.51 0.039152 0.0324661 1.36743
2005.61 0.0286925 0.0324606 -0.825556
2005.71 0.0314937 0.0324554 -0.209842
2005.81 0.0386904 0.0324506 1.27111
2005.91 0.0306249 0.0324462 -0.394979
2006.01 0.0359947 0.0324422 0.738963
2006.11 0.029335 0.0324384 -0.681029
2006.21 0.0332381 0.032435 0.168906
2006.31 0.0364423 0.0324318 0.842788
2006.41 0.0335256 0.0324288 0.238423
2006.51 0.0392706 0.0324261 1.40091
2006.61 0.0453355 0.0324236 2.53801
2006.71 0.031247 0.0324212 -0.250239
2006.81 0.0309705 0.0324191 -0.309198
2006.91 0.0379628 0.0324171 1.13356
2007.01 0.0287065 0.0324153 -0.81402
2007.11 0.0326817 0.0324136 0.0561566
2007.21 0.0327144 0.0324121 0.0654825
2007.31 0.0314828 0.0324106 -0.201236
2007.41 0.0303663 0.0324093 -0.452003
2007.51 0.0296739 0.0324081 -0.598388
2007.61 0.0356124 0.0324069 0.667498
2007.71 0.030944 0.0324059 -0.318496
2007.81 0.0340311 0.0324049 0.341471
2007.91 0.0278889 0.032404 -1.02369
2008.01 0.0398692 0.0324032 1.52143
2008.11 0.0346286 0.0324024 0.473724
2008.21 0.0269802 0.0324017 -1.21379
2008.31 0.0347995 0.0324011 0.497258
2008.41 0.035114 0.0324005 0.565134
2008.51 0.0424931 0.0323999 2.04728
2008.61 0.0363921 0.0323994 0.853193
2008.71 0.0292928 0.032399 -0.689536
2008.81 0.037425 0.0323985 1.06507
2008.91 0.0335387 0.0323981 0.239476
2009.01 0.0356716 0.0323978 0.683565
2009.11 0.0338629 0.0323974 0.311586
2009.21 0.0321812 0.0323971 -0.0471786
2009.31 0.0245999 0.0323968 -1.84244
2009.41 0.030625 0.0323965 -0.385867
2009.51 0.0315612 0.0323963 -0.181308
2009.61 0.0320003 0.0323961 -0.0868231
2009.71 0.0299365 0.0323959 -0.541694
2009.81 0.0358465 0.0323957 0.726718
2009.91 0.037375 0.0323955 1.03938
2010.01 0.0306132 0.0323953 -0.385447
2010.11 0.0228902 0.0323952 -2.1699
2010.21 0.0396915 0.032395 1.54653
2010.31 0.0273312 0.0323949 -1.13182
2010.41 0.0363338 0.0323948 0.82833
2010.51 0.0338825 0.0323946 0.338283
2010.61 0.0309066 0.0323945 -0.326953
2010.71 0.0309388 0.0323944 -0.333674
2010.81 0.0311206 0.0323944 -0.276363
2010.91 0.0357916 0.0323943 0.721812
2011.01 0.0215594 0.0323942 -2.50303
2011.11 0.0298037 0.0323941 -0.569031
2011.21 0.0252967 0.0323941 -1.65799
2011.31 0.0343417 0.032394 0.421368
2011.41 0.0328328 0.032394 0.0947446
2011.51 0.0322482 0.0323939 -0.0304561
2011.61 0.0260807 0.0323939 -1.44175
2011.71 0.0397815 0.0323938 1.50652
2011.81 0.0281971 0.0323938 -0.926772
2011.91 0.0340319 0.0323937 0.347342
2012.01 0.0328026 0.0323937 0.0877236
2012.11 0.0398865 0.0323937 1.54532
2012.21 0.0290879 0.0323936 -0.707294
2012.31 0.0391753 0.0323936 1.42572
2012.41 0.027602 0.0323936 -1.08148
2012.51 0.0297122 0.0323936 -0.595383
2012.61 0.0366667 0.0323936 0.915272
2012.71 0.0300255 0.0323935 -0.523762
2012.81 0.028103 0.0323935 -0.953462
2012.91 0.0320262 0.0323935 -0.0806083
2013.01 0.0312252 0.0323935 -0.25907
2013.11 0.0264605 0.0323935 -1.37529
2013.21 0.0272276 0.0323935 -1.18572
2013.31 0.0382657 0.0323934 1.22265
2013.41 0.0286169 0.0323934 -0.840186
2013.51 0.0349693 0.0323934 0.565719
2013.61 0.0357393 0.0323934 0.702266
2013.71 0.0440258 0.0323934 2.35645
2013.81 0.0293895 0.0323934 -0.665712
2013.91 0.0333106 0.0323934 0.196784
2014.01 0.0288351 0.0323934 -0.786576
2014.11 0.0286189 0.0323934 -0.852487
2014.21 0.0291444 0.0323934 -0.725493
2014.31 0.0248693 0.0323934 -1.68403
2014.41 0.0255694 0.0323934 -1.58142
2014.51 0.0336173 0.0323934 0.26891
2014.61 0.0375155 0.0323934 1.09284
2014.71 0.0293918 0.0323934 -0.673498
2014.81 0.0389973 0.0323933 1.37213
2014.91 0.0333793 0.0323933 0.212018
