# Data from DA_130128_E4.h5 stim 3
# Ratiometric estimator mono-exponential fit
# Fitted model Ca = baseline+delta*exp(-(t-t0)/tau)
# nobs = 173
# number of degrees of freedom = 170
# baseline length = 7
# fit started from point 34
# estimated baseline 0.025022 and standard error 0.000235615
# estimated delta 0.0268255 and standard error 0.000949547
# estimated tau 2.40438 and standard error 0.142914
# residual sum of squares: 189.655
# RSS per degree of freedom: 1.11562
# Probability of observing a larger of equal RSS per DOF under the null hypothesis: 0.143835

# rss per degree of freedom: 1.11562

# Time    Ca  Prediction  Residual
2800.01 0.0267159 0.025022 0.808984
2800.11 0.0233881 0.025022 -0.797859
2800.21 0.0233132 0.025022 -0.834387
2800.31 0.0251901 0.025022 0.0808263
2800.41 0.0224636 0.025022 -1.26073
2800.51 0.0244486 0.025022 -0.279304
2800.61 0.0279547 0.025022 1.40833

2803.41 0.0530668 0.0518474 0.471268
2803.51 0.0534847 0.0507546 1.06679
2803.61 0.0511042 0.0497063 0.553226
2803.71 0.0444087 0.0487007 -1.78055
2803.81 0.0445817 0.0477361 -1.30896
2803.91 0.0452636 0.0468108 -0.634222
2804.01 0.0463891 0.0459232 0.192175
2804.11 0.0474214 0.0450717 0.961045
2804.21 0.0473189 0.0442549 1.23274
2804.31 0.0467781 0.0434714 1.35053
2804.41 0.0404245 0.0427198 -0.968663
2804.51 0.0424859 0.0419988 0.20358
2804.61 0.0401767 0.0413072 -0.480979
2804.71 0.0398396 0.0406438 -0.351883
2804.81 0.0403052 0.0400074 0.127927
2804.91 0.0374419 0.0393969 -0.864595
2805.01 0.0438939 0.0388113 2.13869
2805.11 0.0371465 0.0382496 -0.491062
2805.21 0.0389715 0.0377107 0.550252
2805.31 0.0360603 0.0371938 -0.506139
2805.41 0.0347516 0.036698 -0.857343
2805.51 0.0339345 0.0362223 -1.0252
2805.61 0.0344476 0.035766 -0.588878
2805.71 0.0363809 0.0353283 0.467669
2805.81 0.0355184 0.0349085 0.274904
2805.91 0.0363342 0.0345057 0.799921
2806.01 0.0339761 0.0341194 -0.0638122
2806.11 0.0342416 0.0337488 0.22251
2806.21 0.0326121 0.0333933 -0.353981
2806.31 0.0305948 0.0330522 -1.13887
2806.41 0.0369442 0.0327251 1.86277
2806.51 0.0323468 0.0324113 -0.0293073
2806.61 0.0331217 0.0321103 0.460679
2806.71 0.0324396 0.0318215 0.2805
2806.81 0.0301013 0.0315445 -0.674636
2806.91 0.0288556 0.0312788 -1.14116
2807.01 0.0319977 0.0310239 0.442463
2807.11 0.0286056 0.0307794 -1.01426
2807.21 0.0310844 0.0305448 0.246167
2807.31 0.0281831 0.0303199 -1.00705
2807.41 0.0269893 0.030104 -1.45572
2807.51 0.0299133 0.029897 0.00768639
2807.61 0.0298196 0.0296984 0.0564885
2807.71 0.032251 0.0295079 1.25322
2807.81 0.0288631 0.0293251 -0.216762
2807.91 0.027342 0.0291498 -0.858064
2808.01 0.0266273 0.0289817 -1.10553
2808.11 0.0312193 0.0288204 1.09759
2808.21 0.0285638 0.0286656 -0.0474814
2808.31 0.0298712 0.0285172 0.633296
2808.41 0.028564 0.0283748 0.0895961
2808.51 0.0302627 0.0282382 0.9253
2808.61 0.0295625 0.0281072 0.680956
2808.71 0.0288921 0.0279815 0.428998
2808.81 0.032472 0.0278609 2.11979
2808.91 0.0269771 0.0277453 -0.364844
2809.01 0.026782 0.0276344 -0.405015
2809.11 0.0246604 0.0275279 -1.3975
2809.21 0.027665 0.0274258 0.11285
2809.31 0.0258925 0.0273279 -0.68882
2809.41 0.0242826 0.027234 -1.47336
2809.51 0.0287657 0.0271439 0.756956
2809.61 0.0280824 0.0270574 0.489214
2809.71 0.0294512 0.0269745 1.13489
2809.81 0.0284651 0.026895 0.740062
2809.91 0.0256283 0.0268187 -0.57354
2810.01 0.0240424 0.0267455 -1.32421
2810.11 0.0256277 0.0266752 -0.511256
2810.21 0.0260108 0.0266079 -0.287656
2810.31 0.0274181 0.0265433 0.417793
2810.41 0.0296047 0.0264813 1.45499
2810.51 0.0233757 0.0264219 -1.49318
2810.61 0.0259868 0.0263648 -0.180695
2810.71 0.0243297 0.0263101 -0.961793
2810.81 0.0229437 0.0262577 -1.63861
2810.91 0.0247494 0.0262073 -0.705429
2811.01 0.0280829 0.026159 0.911898
2811.11 0.0259148 0.0261127 -0.0960481
2811.21 0.0306033 0.0260683 2.04934
2811.31 0.0313765 0.0260256 2.50232
2811.41 0.0265148 0.0259848 0.252559
2811.51 0.0295212 0.0259455 1.68178
2811.61 0.0246478 0.0259079 -0.613312
2811.71 0.0263239 0.0258718 0.214515
2811.81 0.0267472 0.0258372 0.43513
2811.91 0.0259604 0.025804 0.0758458
2812.01 0.0289501 0.0257721 1.50478
2812.11 0.0306318 0.0257416 2.24654
2812.21 0.0284126 0.0257123 1.27111
2812.31 0.0303891 0.0256841 2.20896
2812.41 0.0280737 0.0256572 1.15651
2812.51 0.0277973 0.0256313 1.02684
2812.61 0.0208392 0.0256065 -2.34904
2812.71 0.0231648 0.0255826 -1.19227
2812.81 0.0231168 0.0255598 -1.1967
2812.91 0.0262282 0.0255379 0.336769
2813.01 0.027206 0.0255169 0.80209
2813.11 0.0229937 0.0254967 -1.24963
2813.21 0.0245547 0.0254774 -0.446908
2813.31 0.0289056 0.0254588 1.61154
2813.41 0.02993 0.025441 2.06036
2813.51 0.0233815 0.025424 -0.992987
2813.61 0.0228281 0.0254076 -1.28114
2813.71 0.0291052 0.0253919 1.76656
2813.81 0.0242075 0.0253768 -0.582599
2813.91 0.022356 0.0253623 -1.48848
2814.01 0.0270199 0.0253485 0.808091
2814.11 0.0240941 0.0253352 -0.608777
2814.21 0.0229518 0.0253224 -1.17181
2814.31 0.023448 0.0253102 -0.924865
2814.41 0.0273547 0.0252984 0.983678
2814.51 0.0244972 0.0252872 -0.385662
2814.61 0.0244574 0.0252764 -0.394609
2814.71 0.0274182 0.025266 1.03568
2814.81 0.0241756 0.0252561 -0.52782
2814.91 0.0251631 0.0252465 -0.0394984
2815.01 0.0265509 0.0252374 0.625744
2815.11 0.0270787 0.0252286 0.884637
2815.21 0.0224827 0.0252202 -1.36916
2815.31 0.0256644 0.0252121 0.218824
2815.41 0.025861 0.0252044 0.3142
2815.51 0.0231031 0.0251969 -1.04943
2815.61 0.0219118 0.0251898 -1.63052
2815.71 0.0244089 0.025183 -0.384762
2815.81 0.0247195 0.0251764 -0.218162
2815.91 0.0296279 0.0251701 2.07813
2816.01 0.0214141 0.0251641 -1.84585
2816.11 0.0266349 0.0251583 0.715047
2816.21 0.0228903 0.0251527 -1.14019
2816.31 0.0238104 0.0251474 -0.652746
2816.41 0.029078 0.0251423 1.84973
2816.51 0.0275349 0.0251374 1.13885
2816.61 0.0226961 0.0251327 -1.20456
2816.71 0.0233803 0.0251282 -0.854822
2816.81 0.0271645 0.0251239 0.976143
2816.91 0.0271404 0.0251197 0.964087
2817.01 0.0215823 0.0251157 -1.75797
2817.11 0.0290404 0.0251119 1.85749
2817.21 0.0252246 0.0251082 0.056583
2817.31 0.0226441 0.0251047 -1.21938
2817.41 0.0241499 0.0251014 -0.459252
2817.51 0.0241266 0.0250981 -0.469854
2817.61 0.0252945 0.025095 0.095991
2817.71 0.0270378 0.025092 0.928102
2817.81 0.0230494 0.0250892 -1.00409
2817.91 0.0216356 0.0250864 -1.71862
2818.01 0.0246574 0.0250838 -0.208256
2818.11 0.0261826 0.0250813 0.534256
2818.21 0.0250533 0.0250789 -0.0124762
2818.31 0.0278336 0.0250766 1.2951
2818.41 0.0229275 0.0250743 -1.05973
2818.51 0.023625 0.0250722 -0.712942
2818.61 0.0247015 0.0250702 -0.179502
2818.71 0.0262251 0.0250682 0.561731
2818.81 0.0267921 0.0250663 0.830851
2818.91 0.0247631 0.0250645 -0.147587
2819.01 0.025553 0.0250628 0.235421
2819.11 0.0242622 0.0250611 -0.388554
2819.21 0.0259454 0.0250595 0.427652
2819.31 0.0280094 0.025058 1.37674
2819.41 0.024859 0.0250565 -0.0961933
2819.51 0.0289976 0.0250551 1.86197
2819.61 0.0276456 0.0250538 1.23638
2819.71 0.0207514 0.0250525 -2.16043
2819.81 0.0222074 0.0250512 -1.39991
2819.91 0.024049 0.02505 -0.485847
