# Data from DA_121015_E1.h5 stim 4
# Ratiometric estimator mono-exponential fit
# Fitted model Ca = baseline+delta*exp(-(t-t0)/tau)
# nobs = 161
# number of degrees of freedom = 158
# baseline length = 7
# fit started from point 46
# estimated baseline 0.100917 and standard error 0.00080187
# estimated delta 0.0627568 and standard error 0.000986153
# estimated tau 13.0041 and standard error 0.504556
# residual sum of squares: 130.29
# RSS per degree of freedom: 0.82462
# Probability of observing a larger of equal RSS per DOF under the null hypothesis: 0.94765

# rss per degree of freedom: 0.82462

# Time    Ca  Prediction  Residual
1842.89 0.0993333 0.100917 -0.600532
1843.09 0.100421 0.100917 -0.185313
1843.29 0.0991404 0.100917 -0.674767
1843.49 0.0999746 0.100917 -0.352347
1843.69 0.101917 0.100917 0.375307
1843.89 0.104199 0.100917 1.2098
1844.09 0.0979948 0.100917 -1.12045

1852.09 0.161984 0.163673 -0.44902
1852.29 0.158952 0.162716 -1.03737
1852.49 0.165429 0.161772 0.977508
1852.69 0.160516 0.160844 -0.0891218
1852.89 0.165887 0.159929 1.57161
1853.09 0.160831 0.159028 0.49171
1853.29 0.157062 0.158141 -0.29935
1853.49 0.158464 0.157268 0.330101
1853.69 0.161606 0.156408 1.39567
1853.89 0.151925 0.155561 -1.03812
1854.09 0.160728 0.154727 1.63737
1854.29 0.153759 0.153906 -0.0414434
1854.49 0.147165 0.153097 -1.74045
1854.69 0.147466 0.152301 -1.38631
1854.89 0.151765 0.151517 0.0695391
1855.09 0.150998 0.150744 0.072518
1855.29 0.143823 0.149984 -1.81629
1855.49 0.150574 0.149235 0.382423
1855.69 0.157197 0.148497 2.41986
1855.89 0.149007 0.147771 0.354492
1856.09 0.148398 0.147056 0.385855
1856.29 0.140726 0.146352 -1.68712
1856.49 0.140139 0.145659 -1.66676
1856.69 0.145123 0.144976 0.0434046
1856.89 0.155723 0.144303 3.18683
1857.09 0.14463 0.143641 0.289861
1857.29 0.142614 0.142989 -0.110553
1857.49 0.143071 0.142347 0.212785
1857.69 0.144138 0.141715 0.707699
1857.89 0.138794 0.141092 -0.702108
1858.09 0.136534 0.140479 -1.20846
1858.29 0.139811 0.139875 -0.0192584
1858.49 0.140703 0.13928 0.430976
1858.69 0.139006 0.138695 0.0943351
1858.89 0.135812 0.138118 -0.709056
1859.09 0.132339 0.137551 -1.62266
1859.29 0.13684 0.136991 -0.0460595
1859.49 0.139576 0.136441 0.95328
1859.69 0.134014 0.135899 -0.588114
1859.89 0.13801 0.135365 0.798151
1860.09 0.132973 0.134839 -0.582788
1860.29 0.139041 0.134321 1.43234
1860.49 0.128576 0.133811 -1.66902
1860.69 0.134194 0.133309 0.273627
1860.89 0.128487 0.132815 -1.39227
1861.09 0.133131 0.132328 0.252529
1861.29 0.133307 0.131849 0.450966
1861.49 0.134779 0.131377 1.04859
1861.69 0.132428 0.130912 0.486805
1861.89 0.131034 0.130454 0.183209
1862.09 0.128882 0.130003 -0.36287
1862.29 0.128884 0.129559 -0.2146
1862.49 0.13031 0.129122 0.376758
1862.69 0.129424 0.128692 0.233366
1862.89 0.127922 0.128268 -0.110892
1863.09 0.131071 0.12785 1.03463
1863.29 0.127978 0.127439 0.173931
1863.49 0.122846 0.127034 -1.39116
1863.69 0.12436 0.126636 -0.739108
1863.89 0.130877 0.126243 1.46442
1864.09 0.124202 0.125857 -0.539461
1864.29 0.128932 0.125476 1.09414
1864.49 0.123867 0.125101 -0.411129
1864.69 0.126325 0.124732 0.513589
1864.89 0.118655 0.124369 -1.9317
1865.09 0.127406 0.124011 1.10205
1865.29 0.124278 0.123658 0.198708
1865.49 0.123443 0.123311 0.0435671
1865.69 0.126242 0.122969 1.0592
1865.89 0.124405 0.122633 0.583481
1866.09 0.12308 0.122301 0.257081
1866.29 0.120997 0.121975 -0.325003
1866.49 0.120359 0.121654 -0.435101
1866.69 0.118089 0.121337 -1.10045
1866.89 0.121951 0.121026 0.310127
1867.09 0.116526 0.120719 -1.41307
1867.29 0.120219 0.120416 -0.0653959
1867.49 0.113638 0.120119 -2.2645
1867.69 0.120636 0.119826 0.274383
1867.89 0.121225 0.119537 0.559991
1868.09 0.117666 0.119253 -0.533701
1868.29 0.117993 0.118973 -0.335098
1868.49 0.122312 0.118698 1.1969
1868.69 0.117138 0.118426 -0.449712
1868.89 0.117118 0.118159 -0.350589
1869.09 0.122587 0.117896 1.57762
1869.29 0.121263 0.117637 1.20429
1869.49 0.116665 0.117381 -0.242758
1869.69 0.119033 0.11713 0.637434
1869.89 0.112009 0.116883 -1.71473
1870.09 0.118524 0.116639 0.64515
1870.29 0.117117 0.116399 0.245863
1870.49 0.115702 0.116163 -0.159612
1870.69 0.116857 0.11593 0.31674
1870.89 0.121114 0.115701 1.83476
1871.09 0.110352 0.115475 -1.81924
1871.29 0.118212 0.115253 1.00157
1871.49 0.113815 0.115034 -0.427599
1871.69 0.111494 0.114819 -1.17793
1871.89 0.113263 0.114607 -0.471472
1872.09 0.11893 0.114398 1.52687
1872.29 0.114416 0.114192 0.0784815
1872.49 0.113763 0.113989 -0.0792037
1872.69 0.113358 0.11379 -0.147361
1872.89 0.111542 0.113593 -0.720533
1873.09 0.114789 0.1134 0.482194
1873.29 0.115554 0.113209 0.818507
1873.49 0.109272 0.113022 -1.34378
1873.69 0.111204 0.112837 -0.577901
1873.89 0.111223 0.112655 -0.515442
1874.09 0.112743 0.112476 0.0936717
1874.29 0.112793 0.112299 0.17397
1874.49 0.112487 0.112126 0.124464
1874.69 0.113724 0.111955 0.614575
1874.89 0.111903 0.111786 0.0407865
1875.09 0.110466 0.11162 -0.412561
1875.29 0.111135 0.111457 -0.11481
1875.49 0.110693 0.111296 -0.215147
1875.69 0.111553 0.111138 0.146527
1875.89 0.110969 0.110982 -0.00432804
1876.09 0.110823 0.110828 -0.0016913
1876.29 0.107298 0.110677 -1.21762
1876.49 0.112665 0.110528 0.746761
1876.69 0.106697 0.110381 -1.33227
1876.89 0.111811 0.110237 0.557053
1877.09 0.110794 0.110094 0.248631
1877.29 0.110679 0.109954 0.257563
1877.49 0.109125 0.109816 -0.24905
1877.69 0.109286 0.109681 -0.139314
1877.89 0.11271 0.109547 1.10725
1878.09 0.108671 0.109415 -0.265721
1878.29 0.108803 0.109285 -0.173403
1878.49 0.108029 0.109158 -0.40457
1878.69 0.113861 0.109032 1.69569
1878.89 0.110508 0.108908 0.570192
1879.09 0.108791 0.108786 0.00167737
1879.29 0.105729 0.108666 -1.07266
1879.49 0.109518 0.108548 0.341259
1879.69 0.10459 0.108431 -1.40839
1879.89 0.109693 0.108317 0.494193
1880.09 0.109553 0.108204 0.480181
1880.29 0.109141 0.108092 0.378837
1880.49 0.104033 0.107983 -1.46008
1880.69 0.109522 0.107875 0.596952
1880.89 0.108515 0.107769 0.265755
1881.09 0.108757 0.107664 0.39016
1881.29 0.108994 0.107561 0.513247
1881.49 0.108167 0.10746 0.250387
1881.69 0.106757 0.10736 -0.219232
1881.89 0.106226 0.107262 -0.378526
1882.09 0.108716 0.107165 0.555853
1882.29 0.109937 0.107069 1.02671
1882.49 0.108157 0.106976 0.427071
1882.69 0.109471 0.106883 0.916065
