# Data from DA_121015_E1.h5 stim 2
# Ratiometric estimator mono-exponential fit
# Fitted model Ca = baseline+delta*exp(-(t-t0)/tau)
# nobs = 155
# number of degrees of freedom = 152
# baseline length = 7
# fit started from point 52
# estimated baseline 0.0585828 and standard error 0.000881081
# estimated delta 0.0638981 and standard error 0.0010527
# estimated tau 7.46707 and standard error 0.283033
# residual sum of squares: 136.299
# RSS per degree of freedom: 0.896702
# Probability of observing a larger of equal RSS per DOF under the null hypothesis: 0.814598

# rss per degree of freedom: 0.896702

# Time    Ca  Prediction  Residual
781.658 0.0580598 0.0585828 -0.198993
781.758 0.05902 0.0585828 0.165249
781.858 0.0577585 0.0585828 -0.314829
781.958 0.0565647 0.0585828 -0.766039
782.058 0.0589167 0.0585828 0.126546
782.158 0.0579615 0.0585828 -0.237086
782.258 0.0581697 0.0585828 -0.158429

786.858 0.119288 0.122481 -0.835342
786.958 0.122011 0.121631 0.0985133
787.058 0.122187 0.120792 0.351424
787.158 0.122881 0.119965 0.745236
787.258 0.119634 0.119148 0.125681
787.358 0.114521 0.118342 -1.02397
787.458 0.117332 0.117547 -0.0569063
787.558 0.122822 0.116763 1.5441
787.658 0.118129 0.115989 0.55028
787.758 0.112181 0.115225 -0.827512
787.858 0.114427 0.114472 -0.0119976
787.958 0.112505 0.113728 -0.333884
788.058 0.119596 0.112995 1.74358
788.158 0.118385 0.112271 1.60608
788.258 0.110956 0.111557 -0.162199
788.358 0.108915 0.110852 -0.536051
788.458 0.110487 0.110157 0.0908054
788.558 0.111295 0.109471 0.501742
788.658 0.106748 0.108794 -0.570649
788.758 0.106811 0.108126 -0.364582
788.858 0.106125 0.107467 -0.375811
788.958 0.109544 0.106816 0.742231
789.058 0.107586 0.106175 0.386657
789.158 0.10329 0.105542 -0.650767
789.258 0.10782 0.104917 0.810414
789.358 0.106287 0.104301 0.557568
789.458 0.105847 0.103692 0.612659
789.558 0.105244 0.103092 0.60325
789.658 0.101423 0.1025 -0.309677
789.758 0.0961188 0.101916 -1.70575
789.858 0.102498 0.101339 0.329908
789.958 0.0996553 0.100771 -0.323869
790.058 0.0972817 0.100209 -0.871745
790.158 0.101339 0.0996557 0.485259
790.258 0.0973934 0.0991093 -0.510534
790.358 0.100629 0.0985702 0.597202
790.458 0.0967989 0.0980383 -0.367906
790.558 0.095764 0.0975134 -0.519142
790.658 0.0984825 0.0969955 0.438326
790.758 0.0972643 0.0964845 0.232848
790.858 0.0968576 0.0959803 0.261292
790.958 0.0957147 0.0954828 0.069075
791.058 0.0937396 0.0949919 -0.385538
791.158 0.0956769 0.0945076 0.349761
791.258 0.0909367 0.0940297 -0.967777
791.358 0.0938418 0.0935581 0.0852119
791.458 0.0918466 0.0930929 -0.382546
791.558 0.0939643 0.0926338 0.404519
791.658 0.0887786 0.0921808 -1.06402
791.758 0.0859743 0.0917339 -1.84745
791.858 0.0937556 0.0912929 0.756273
791.958 0.0960028 0.0908577 1.55716
792.058 0.0882624 0.0904284 -0.672459
792.158 0.0883012 0.0900047 -0.533633
792.258 0.0918435 0.0895867 0.686235
792.358 0.0867023 0.0891743 -0.778785
792.458 0.0875721 0.0887673 -0.379058
792.558 0.0920061 0.0883658 1.11917
792.658 0.0887686 0.0879696 0.249274
792.758 0.08477 0.0875787 -0.904446
792.858 0.0877989 0.0871929 0.186978
792.958 0.0844919 0.0868123 -0.754547
793.058 0.0848092 0.0864368 -0.524331
793.158 0.0838039 0.0860663 -0.734407
793.258 0.0881219 0.0857007 0.758482
793.358 0.0856249 0.0853399 0.0899358
793.458 0.0745369 0.084984 -3.6043
793.558 0.0791296 0.0846328 -1.81955
793.658 0.0833339 0.0842862 -0.309264
793.758 0.08998 0.0839443 1.84528
793.858 0.0845422 0.0836069 0.298841
793.958 0.0809177 0.083274 -0.778201
794.058 0.0846814 0.0829456 0.564288
794.158 0.0768298 0.0826215 -1.93689
794.258 0.080721 0.0823017 -0.513155
794.358 0.0818727 0.0819862 -0.0376034
794.458 0.0844405 0.0816748 0.889641
794.558 0.0766331 0.0813676 -1.62388
794.658 0.0835882 0.0810645 0.807944
794.758 0.0864035 0.0807655 1.81225
794.858 0.0806379 0.0804704 0.0553953
794.958 0.0787209 0.0801792 -0.480247
795.058 0.0759088 0.0798919 -1.33434
795.158 0.0831529 0.0796084 1.14621
795.258 0.0782083 0.0793287 -0.378779
795.358 0.0774519 0.0790527 -0.542053
795.458 0.0764717 0.0787804 -0.788649
795.558 0.0802919 0.0785117 0.593498
795.658 0.0860433 0.0782466 2.51082
795.758 0.0779659 0.0779851 -0.00639949
795.858 0.0762085 0.0777269 -0.5166
795.958 0.0755578 0.0774723 -0.666709
796.058 0.0782891 0.077221 0.355675
796.158 0.0783731 0.076973 0.474035
796.258 0.0783279 0.0767284 0.534437
796.358 0.080764 0.076487 1.42268
796.458 0.0744427 0.0762488 -0.625944
796.558 0.0795304 0.0760138 1.14316
796.658 0.0730206 0.0757819 -0.952114
796.758 0.0812719 0.0755531 1.89638
796.858 0.075464 0.0753274 0.0475076
796.958 0.07211 0.0751046 -1.04383
797.058 0.071601 0.0748849 -1.13906
797.158 0.0748246 0.074668 0.0545922
797.258 0.081873 0.074454 2.44682
797.358 0.0824435 0.0742429 2.72497
797.458 0.0757172 0.0740346 0.567087
797.558 0.0743313 0.073829 0.170958
797.658 0.0720603 0.0736262 -0.536964
797.758 0.0775215 0.0734261 1.38843
797.858 0.0750921 0.0732286 0.644207
797.958 0.0705609 0.0730338 -0.870566
798.058 0.074882 0.0728415 0.700401
798.158 0.0729585 0.0726519 0.104505
798.258 0.070774 0.0724647 -0.595498
798.358 0.0703572 0.07228 -0.677303
798.458 0.0748791 0.0720978 0.942184
798.558 0.0755482 0.071918 1.25249
798.658 0.0716179 0.0717406 -0.0431697
798.758 0.073158 0.0715656 0.54993
798.858 0.0713484 0.0713929 -0.0156463
798.958 0.0721932 0.0712225 0.341541
799.058 0.0678399 0.0710543 -1.14358
799.158 0.0709277 0.0708884 0.0137827
799.258 0.0707755 0.0707247 0.0179064
799.358 0.0727805 0.0705632 0.770997
799.458 0.0663725 0.0704038 -1.46071
799.558 0.0680426 0.0702466 -0.797916
799.658 0.0715399 0.0700914 0.510856
799.758 0.0716156 0.0699383 0.596078
799.858 0.0691486 0.0697872 -0.228749
799.958 0.0637747 0.0696382 -2.13647
800.058 0.0689325 0.0694911 -0.199165
800.158 0.0662539 0.069346 -1.12874
800.258 0.0699724 0.0692028 0.271299
800.358 0.0683037 0.0690616 -0.273422
800.458 0.0734624 0.0689222 1.58275
800.558 0.0713802 0.0687846 0.913016
800.658 0.0704327 0.0686489 0.622689
800.758 0.0705852 0.068515 0.728681
800.858 0.0669468 0.0683829 -0.516862
800.958 0.0695385 0.0682525 0.450099
801.058 0.0692864 0.0681239 0.411564
801.158 0.0650834 0.0679969 -1.07011
801.258 0.066967 0.0678717 -0.323524
801.358 0.0726289 0.0677481 1.71087
801.458 0.0680281 0.0676262 0.144998
801.558 0.06353 0.0675059 -1.46872
