# Data from DA_121015_E1.h5 stim 3
# Ratiometric estimator mono-exponential fit
# Fitted model Ca = baseline+delta*exp(-(t-t0)/tau)
# nobs = 135
# number of degrees of freedom = 132
# baseline length = 7
# fit started from point 72
# estimated baseline 0.0800915 and standard error 0.000918754
# estimated delta 0.0677632 and standard error 0.00111113
# estimated tau 8.35488 and standard error 0.284295
# residual sum of squares: 126.058
# RSS per degree of freedom: 0.954986
# Probability of observing a larger of equal RSS per DOF under the null hypothesis: 0.629351

# rss per degree of freedom: 0.954986

# Time    Ca  Prediction  Residual
1222.28 0.0790421 0.0800915 -0.413978
1222.38 0.0823611 0.0800915 0.87612
1222.47 0.0792062 0.0800915 -0.347618
1222.57 0.0755574 0.0800915 -1.81361
1222.67 0.0798248 0.0800915 -0.104927
1222.77 0.0782005 0.0800915 -0.752091
1222.87 0.0822121 0.0800915 0.832025

1229.47 0.145252 0.147855 -0.69387
1229.57 0.147054 0.147048 0.0015078
1229.67 0.148524 0.146252 0.593638
1229.77 0.150556 0.145465 1.35155
1229.87 0.148829 0.144687 1.09594
1229.97 0.141287 0.143918 -0.717886
1230.07 0.143154 0.143159 -0.00133588
1230.17 0.143839 0.142409 0.389387
1230.27 0.140123 0.141667 -0.423902
1230.37 0.139121 0.140935 -0.500588
1230.47 0.142617 0.140211 0.653179
1230.57 0.140432 0.139495 0.260346
1230.67 0.142304 0.138789 0.970816
1230.77 0.142672 0.13809 1.24593
1230.87 0.138097 0.1374 0.195214
1230.97 0.138766 0.136718 0.565629
1231.07 0.139115 0.136045 0.852196
1231.17 0.14003 0.135379 1.28216
1231.27 0.133369 0.134721 -0.387586
1231.37 0.138612 0.134071 1.26901
1231.47 0.133434 0.133429 0.00149986
1231.57 0.133491 0.132794 0.200632
1231.67 0.130886 0.132167 -0.378597
1231.77 0.130969 0.131548 -0.166934
1231.87 0.128863 0.130935 -0.618591
1231.97 0.129145 0.130331 -0.343387
1232.07 0.122017 0.129733 -2.35662
1232.17 0.128003 0.129142 -0.337862
1232.27 0.124894 0.128559 -1.10653
1232.37 0.131068 0.127982 0.909989
1232.47 0.131082 0.127412 1.07152
1232.57 0.122323 0.126849 -1.39519
1232.67 0.128783 0.126293 0.723989
1232.77 0.124842 0.125743 -0.269088
1232.87 0.125745 0.1252 0.162186
1232.97 0.126508 0.124663 0.544806
1233.07 0.12507 0.124133 0.283103
1233.17 0.122837 0.123609 -0.233906
1233.27 0.120955 0.123091 -0.652381
1233.37 0.119143 0.12258 -1.07205
1233.47 0.121868 0.122074 -0.0616927
1233.57 0.12067 0.121575 -0.279225
1233.67 0.119871 0.121081 -0.371259
1233.77 0.120086 0.120593 -0.157744
1233.87 0.113347 0.120112 -2.16633
1233.97 0.121837 0.119635 0.669822
1234.07 0.11949 0.119165 0.101212
1234.17 0.113874 0.1187 -1.54038
1234.27 0.119607 0.118241 0.423815
1234.37 0.117419 0.117787 -0.11391
1234.47 0.116975 0.117338 -0.113241
1234.57 0.118125 0.116895 0.387764
1234.67 0.117481 0.116457 0.327045
1234.77 0.111264 0.116025 -1.54261
1235.17 0.111738 0.114345 -0.841031
1235.27 0.108504 0.113937 -1.78514
1235.37 0.109004 0.113535 -1.49143
1235.47 0.116195 0.113137 0.982835
1235.57 0.113658 0.112744 0.288961
1235.67 0.116141 0.112355 1.21571
1235.77 0.106664 0.111971 -1.7592
1235.87 0.10934 0.111592 -0.728678
1235.97 0.107124 0.111217 -1.33785
1236.07 0.112078 0.110847 0.393518
1236.17 0.105689 0.110481 -1.61815
1236.27 0.114055 0.110119 1.26851
1236.37 0.112326 0.109762 0.834413
1236.47 0.110206 0.109409 0.26094
1236.57 0.104297 0.10906 -1.61976
1236.67 0.10826 0.108716 -0.150286
1236.77 0.111375 0.108375 0.978214
1236.87 0.109318 0.108038 0.426853
1236.97 0.106469 0.107706 -0.414748
1237.07 0.104262 0.107377 -1.0621
1237.17 0.104379 0.107053 -0.893411
1237.27 0.107461 0.106732 0.243574
1237.37 0.101296 0.106415 -1.75051
1237.47 0.110567 0.106102 1.42777
1237.57 0.107689 0.105792 0.63014
1237.67 0.108278 0.105487 0.925578
1237.77 0.103905 0.105184 -0.439708
1237.87 0.103112 0.104886 -0.607868
1237.97 0.101155 0.104591 -1.18631
1238.07 0.102232 0.104299 -0.72755
1238.17 0.105915 0.104011 0.639495
1238.27 0.105158 0.103727 0.484428
1238.37 0.105219 0.103446 0.586343
1238.47 0.108594 0.103168 1.79226
1238.57 0.10958 0.102893 2.17959
1238.67 0.107657 0.102622 1.68907
1238.77 0.105704 0.102354 1.1358
1238.87 0.101135 0.102089 -0.329749
1238.97 0.102191 0.101827 0.124355
1239.07 0.101196 0.101569 -0.128013
1239.17 0.105158 0.101313 1.29752
1239.27 0.102156 0.101061 0.374481
1239.37 0.103719 0.100811 0.985111
1239.47 0.100194 0.100565 -0.12829
1239.57 0.100425 0.100321 0.0360489
1239.67 0.0996943 0.10008 -0.134452
1239.77 0.101913 0.0998425 0.71123
1239.87 0.100411 0.0996076 0.281926
1239.97 0.0974333 0.0993754 -0.680979
1240.07 0.0966117 0.0991459 -0.894075
1240.17 0.100159 0.0989192 0.427922
1240.27 0.10366 0.0986952 1.67987
1240.37 0.0981721 0.0984739 -0.105768
1240.47 0.0950799 0.0982552 -1.13656
1240.57 0.0983185 0.0980391 0.0975982
1240.67 0.0984967 0.0978255 0.23785
1240.77 0.093686 0.0976145 -1.40969
1240.87 0.0968686 0.097406 -0.186635
1240.97 0.0980694 0.0972 0.305208
1241.07 0.0924715 0.0969965 -1.6527
1241.17 0.0996773 0.0967954 1.00456
1241.27 0.0967721 0.0965966 0.0631887
1241.37 0.0981408 0.0964003 0.611761
1241.47 0.0922388 0.0962062 -1.4731
1241.57 0.0964281 0.0960145 0.14554
1241.67 0.102681 0.095825 2.34385
1241.77 0.0947429 0.0956378 -0.320131
1241.87 0.103628 0.0954529 2.74734
1241.97 0.0946135 0.0952701 -0.235194
1242.07 0.0972588 0.0950895 0.770157
1242.17 0.097968 0.0949111 1.06863
1242.27 0.0931652 0.0947348 -0.573127
1242.37 0.0904464 0.0945605 -1.51017
1242.47 0.097184 0.0943884 0.986388
