# Data from DA_121015_E1.h5 stim 1
# Ratiometric estimator mono-exponential fit
# Fitted model Ca = baseline+delta*exp(-(t-t0)/tau)
# nobs = 172
# number of degrees of freedom = 169
# baseline length = 7
# fit started from point 35
# estimated baseline 0.0378067 and standard error 0.00051524
# estimated delta 0.0733526 and standard error 0.00178231
# estimated tau 3.25205 and standard error 0.13552
# residual sum of squares: 165.939
# RSS per degree of freedom: 0.981887
# Probability of observing a larger of equal RSS per DOF under the null hypothesis: 0.552188

# rss per degree of freedom: 0.981887

# Time    Ca  Prediction  Residual
461.015 0.0350315 0.0378067 -0.767469
461.115 0.0429941 0.0378067 1.36479
461.215 0.0349701 0.0378067 -0.783722
461.315 0.0386222 0.0378067 0.220778
461.415 0.0413532 0.0378067 0.943845
461.515 0.0340074 0.0378067 -1.06513
461.615 0.0398841 0.0378067 0.562526

464.515 0.105151 0.111159 -1.06376
464.615 0.118997 0.108938 1.62508
464.715 0.104045 0.106784 -0.484753
464.815 0.105339 0.104695 0.114304
464.915 0.110541 0.10267 1.33251
465.015 0.104853 0.100706 0.723788
465.115 0.0984503 0.0988009 -0.0648049
465.215 0.0921985 0.0969538 -0.880622
465.315 0.0864837 0.0951628 -1.71507
465.415 0.0881232 0.0934259 -1.03949
465.515 0.102168 0.0917416 1.8605
465.615 0.0911099 0.0901084 0.189542
465.715 0.0877131 0.0885246 -0.160482
465.815 0.0882164 0.0869888 0.241259
465.915 0.0842941 0.0854994 -0.24556
466.015 0.0910579 0.0840552 1.34494
466.115 0.0846031 0.0826547 0.394554
466.215 0.081398 0.0812966 0.0207957
466.315 0.0907638 0.0799797 2.10398
466.415 0.0714079 0.0787026 -1.56455
466.515 0.0759151 0.0774642 -0.326955
466.615 0.0755683 0.0762633 -0.146857
466.715 0.0779577 0.0750987 0.60573
466.815 0.0679087 0.0739695 -1.36014
466.915 0.0716797 0.0728744 -0.259507
467.015 0.0731022 0.0718125 0.278118
467.115 0.0713884 0.0707827 0.133421
467.215 0.0645638 0.0697841 -1.17168
467.315 0.0728957 0.0688158 0.88986
467.415 0.065324 0.0678768 -0.594563
467.515 0.0691204 0.0669662 0.474927
467.615 0.0628048 0.0660832 -0.757582
467.715 0.0641706 0.0652269 -0.241445
467.815 0.0667064 0.0643966 0.520472
467.915 0.0603221 0.0635914 -0.770279
468.015 0.059654 0.0628106 -0.743377
468.115 0.0675498 0.0620534 1.2361
468.215 0.0592088 0.0613192 -0.494679
468.315 0.0619032 0.0606072 0.307205
468.415 0.0550957 0.0599167 -1.17055
468.515 0.0620144 0.0592472 0.657323
468.615 0.0576793 0.0585979 -0.224419
468.715 0.0602114 0.0579684 0.530541
468.815 0.0606239 0.0573578 0.791255
468.915 0.0542804 0.0567658 -0.612359
469.015 0.055933 0.0561917 -0.0615272
469.115 0.055869 0.0556349 0.0574508
469.215 0.052477 0.055095 -0.654205
469.315 0.0549217 0.0545715 0.0857987
469.415 0.0583297 0.0540639 1.03504
469.515 0.0539129 0.0535716 0.0829834
469.615 0.0549753 0.0530942 0.462504
469.715 0.0531553 0.0526312 0.132098
469.815 0.0481197 0.0521823 -1.05721
469.915 0.0464326 0.051747 -1.36342
470.015 0.0551003 0.0513249 0.933405
470.115 0.0510799 0.0509155 0.0420357
470.215 0.0548022 0.0505185 1.066
470.315 0.04917 0.0501336 -0.246918
470.415 0.0477291 0.0497603 -0.536694
470.515 0.0511351 0.0493983 0.435788
470.615 0.0496348 0.0490473 0.151879
470.715 0.0426753 0.0487069 -1.59839
470.815 0.0476549 0.0483769 -0.188987
470.915 0.044897 0.0480568 -0.832241
471.015 0.0455603 0.0477464 -0.582233
471.115 0.045087 0.0474454 -0.637989
471.215 0.042286 0.0471535 -1.33727
471.315 0.052791 0.0468705 1.5348
471.415 0.0411942 0.046596 -1.48293
471.515 0.0461056 0.0463298 -0.0596082
471.615 0.0508713 0.0460717 1.22785
471.715 0.0523189 0.0458215 1.63295
471.815 0.0448013 0.0455788 -0.209242
471.915 0.0510605 0.0453434 1.47326
472.015 0.0516289 0.0451152 1.663
472.115 0.0435827 0.0448939 -0.354353
472.215 0.0509374 0.0446793 1.55726
472.315 0.0386846 0.0444711 -1.61704
472.415 0.0448098 0.0442693 0.14511
472.515 0.049882 0.0440736 1.49117
472.615 0.043919 0.0438838 0.00939845
472.715 0.0424785 0.0436998 -0.325876
472.815 0.0452462 0.0435214 0.471868
472.915 0.0466411 0.0433483 0.873608
473.015 0.041048 0.0431805 -0.591719
473.115 0.0398703 0.0430178 -0.866084
473.215 0.0418713 0.04286 -0.2696
473.315 0.0398806 0.0427069 -0.795434
473.415 0.0415821 0.0425586 -0.270822
473.515 0.0401888 0.0424147 -0.626396
473.615 0.040975 0.0422751 -0.356833
473.715 0.0411008 0.0421398 -0.2882
473.815 0.0371243 0.0420086 -1.35554
473.915 0.0456172 0.0418814 1.01119
474.015 0.0413741 0.041758 -0.103898
474.115 0.0419187 0.0416383 0.0788726
474.215 0.0418673 0.0415223 0.0932597
474.315 0.0402802 0.0414098 -0.309346
474.415 0.0411639 0.0413007 -0.0375432
474.515 0.0447561 0.0411949 0.969155
474.615 0.0468826 0.0410923 1.55925
474.715 0.0351444 0.0409928 -1.69019
474.815 0.0362902 0.0408963 -1.34268
474.915 0.0460627 0.0408027 1.41166
475.015 0.0398703 0.040712 -0.23637
475.115 0.0371984 0.040624 -0.976808
475.215 0.0461761 0.0405387 1.53519
475.315 0.0419303 0.040456 0.418822
475.415 0.0444209 0.0403757 1.09266
475.515 0.0435256 0.040298 0.893995
475.615 0.0433371 0.0402225 0.85165
475.715 0.0417198 0.0401494 0.437438
475.815 0.0416814 0.0400784 0.438846
475.915 0.0463502 0.0400096 1.6681
476.015 0.0382266 0.0399429 -0.491493
476.115 0.0459413 0.0398782 1.64053
476.215 0.0467881 0.0398155 1.89446
476.315 0.039906 0.0397547 0.0431776
476.415 0.0377135 0.0396957 -0.569547
476.515 0.035797 0.0396385 -1.14476
476.615 0.041317 0.039583 0.490341
476.715 0.0497005 0.0395292 2.74435
476.815 0.0386656 0.0394771 -0.227459
476.915 0.0332223 0.0394265 -1.8335
477.015 0.0412966 0.0393774 0.530207
477.115 0.0437015 0.0393299 1.22493
477.215 0.0352328 0.0392837 -1.17775
477.315 0.0425317 0.039239 0.910322
477.415 0.0363249 0.0391956 -0.828321
477.515 0.0394784 0.0391536 0.0916834
477.615 0.0470882 0.0391128 2.11896
477.715 0.0395347 0.0390732 0.130839
477.815 0.038025 0.0390349 -0.286695
477.915 0.03818 0.0389977 -0.235489
478.015 0.0436428 0.0389616 1.30072
478.115 0.0405315 0.0389266 0.452933
478.215 0.0379097 0.0388927 -0.282231
478.315 0.0396625 0.0388598 0.230705
478.415 0.0417958 0.038828 0.830196
478.515 0.0404007 0.038797 0.452857
478.615 0.0344579 0.038767 -1.25858
478.715 0.0365036 0.038738 -0.656635
478.815 0.0390725 0.0387098 0.103871
478.915 0.0346941 0.0386824 -1.18266
479.015 0.0396233 0.0386559 0.276373
479.115 0.0315188 0.0386302 -2.13677
479.215 0.0333607 0.0386052 -1.55093
479.315 0.0416362 0.0385811 0.852662
479.415 0.0415089 0.0385576 0.832582
479.515 0.0384003 0.0385349 -0.0390753
479.615 0.0422153 0.0385128 1.03719
479.715 0.0324471 0.0384914 -1.81465
479.815 0.0409402 0.0384707 0.692499
479.915 0.0406236 0.0384506 0.631512
480.015 0.0420097 0.0384311 1.00929
480.115 0.0412089 0.0384122 0.794354
480.215 0.0377424 0.0383938 -0.189489
480.315 0.0392625 0.0383761 0.250911
480.415 0.0348737 0.0383588 -1.02903
480.515 0.0307699 0.0383421 -2.34043
480.615 0.032855 0.0383259 -1.64139
480.715 0.038388 0.0383102 0.0228057
480.815 0.0343779 0.0382949 -1.16473
480.915 0.0321793 0.0382801 -1.80227
