# Data from DA_120906_E1.h5 stim 4
# Ratiometric estimator mono-exponential fit
# Fitted model Ca = baseline+delta*exp(-(t-t0)/tau)
# nobs = 179
# number of degrees of freedom = 176
# baseline length = 7
# fit started from point 28
# estimated baseline 0.135092 and standard error 0.0011255
# estimated delta 0.0415961 and standard error 0.00148409
# estimated tau 11.9335 and standard error 1.10399
# residual sum of squares: 182.36
# RSS per degree of freedom: 1.03613
# Probability of observing a larger of equal RSS per DOF under the null hypothesis: 0.355538

# rss per degree of freedom: 1.03613

# Time    Ca  Prediction  Residual
1051.86 0.137388 0.135092 0.493457
1052.06 0.145168 0.135092 2.07221
1052.26 0.141486 0.135092 1.35367
1052.46 0.139483 0.135092 0.936486
1052.66 0.136607 0.135092 0.328961
1052.86 0.13503 0.135092 -0.0133433
1053.06 0.137973 0.135092 0.628379

1057.46 0.173565 0.176688 -0.556638
1057.66 0.170262 0.175996 -1.0339
1057.86 0.183272 0.175316 1.35069
1058.06 0.170975 0.174648 -0.671595
1058.26 0.19258 0.17399 3.06883
1058.46 0.165613 0.173344 -1.42503
1058.66 0.175126 0.172708 0.419493
1058.86 0.163407 0.172083 -1.62436
1059.06 0.172385 0.171468 0.164542
1059.26 0.179098 0.170864 1.44275
1059.46 0.169618 0.170269 -0.119234
1059.66 0.166178 0.169685 -0.644898
1059.86 0.176595 0.16911 1.31078
1060.06 0.157722 0.168544 -2.09446
1060.26 0.167902 0.167988 -0.0158022
1060.46 0.167246 0.167442 -0.0361075
1060.66 0.17109 0.166904 0.753585
1060.86 0.175345 0.166375 1.58765
1061.06 0.16224 0.165855 -0.67924
1061.26 0.160173 0.165344 -0.997985
1061.46 0.165581 0.164841 0.137915
1061.66 0.168481 0.164347 0.768513
1061.86 0.171714 0.16386 1.41313
1062.06 0.159589 0.163382 -0.736753
1062.26 0.160948 0.162912 -0.376045
1062.46 0.170397 0.16245 1.46314
1062.66 0.159647 0.161995 -0.447599
1062.86 0.163444 0.161548 0.359835
1063.06 0.159835 0.161108 -0.243345
1063.26 0.154523 0.160676 -1.20616
1063.46 0.15714 0.160251 -0.608798
1063.66 0.163636 0.159833 0.70921
1063.86 0.15718 0.159421 -0.429822
1064.06 0.159843 0.159017 0.160329
1064.26 0.154567 0.158619 -0.795311
1064.46 0.15665 0.158228 -0.310304
1064.66 0.157715 0.157844 -0.0249932
1064.86 0.15715 0.157466 -0.0611457
1065.06 0.162331 0.157094 0.991954
1065.26 0.150767 0.156728 -1.19587
1065.46 0.151176 0.156369 -1.04758
1065.66 0.163803 0.156015 1.47913
1065.86 0.15619 0.155667 0.101549
1066.06 0.153857 0.155325 -0.288794
1066.26 0.151613 0.154989 -0.667445
1066.46 0.157672 0.154658 0.588761
1066.66 0.150244 0.154333 -0.810826
1066.86 0.151138 0.154013 -0.584961
1067.06 0.150027 0.153699 -0.744922
1067.26 0.153524 0.15339 0.0266535
1067.46 0.153667 0.153085 0.115308
1067.66 0.155663 0.152786 0.564211
1067.86 0.155996 0.152492 0.688907
1068.06 0.153715 0.152203 0.298914
1068.26 0.156856 0.151919 0.961765
1068.46 0.154101 0.151639 0.483582
1068.66 0.144791 0.151364 -1.36495
1068.86 0.153391 0.151094 0.455787
1069.06 0.1502 0.150828 -0.127856
1069.26 0.147269 0.150566 -0.68062
1069.46 0.151711 0.150309 0.281235
1069.66 0.140589 0.150056 -1.99306
1069.86 0.144705 0.149807 -1.06625
1070.06 0.142356 0.149563 -1.53205
1070.26 0.158334 0.149322 1.76936
1070.46 0.156825 0.149086 1.5223
1070.66 0.151678 0.148853 0.573207
1070.86 0.14529 0.148624 -0.686146
1071.06 0.140656 0.148399 -1.65473
1071.26 0.144594 0.148178 -0.741185
1071.46 0.15109 0.147961 0.633117
1071.66 0.160025 0.147747 2.38485
1071.86 0.13946 0.147537 -1.71711
1072.06 0.149579 0.14733 0.465231
1072.26 0.159335 0.147126 2.3925
1072.46 0.147693 0.146926 0.159035
1072.66 0.149582 0.14673 0.570032
1072.86 0.150363 0.146536 0.775084
1073.06 0.150631 0.146346 0.855978
1073.26 0.150029 0.146159 0.778144
1073.46 0.145425 0.145975 -0.114097
1073.66 0.144418 0.145794 -0.280062
1073.86 0.143574 0.145616 -0.423786
1074.06 0.154792 0.145441 1.84703
1074.26 0.147174 0.145269 0.381743
1074.46 0.136242 0.1451 -1.92767
1074.66 0.1432 0.144934 -0.360644
1074.86 0.145636 0.14477 0.179769
1075.06 0.144226 0.144609 -0.0804416
1075.26 0.153995 0.144451 1.87866
1075.46 0.14562 0.144296 0.275743
1075.66 0.149508 0.144143 1.08543
1075.86 0.141645 0.143992 -0.503991
1076.06 0.145826 0.143844 0.404849
1076.26 0.138768 0.143699 -1.04798
1076.46 0.146817 0.143556 0.676646
1076.66 0.145228 0.143415 0.381974
1076.86 0.147751 0.143277 0.915953
1077.06 0.142842 0.143141 -0.0619294
1077.26 0.142248 0.143007 -0.160327
1077.46 0.14283 0.142875 -0.00936113
1077.66 0.138341 0.142746 -0.958761
1077.86 0.142119 0.142619 -0.104949
1078.06 0.148129 0.142494 1.17238
1078.26 0.145152 0.142371 0.576843
1078.46 0.14428 0.14225 0.419215
1078.66 0.140043 0.142131 -0.439724
1078.86 0.143092 0.142014 0.224731
1079.06 0.147508 0.141899 1.15421
1079.26 0.146783 0.141786 1.02755
1079.46 0.138424 0.141674 -0.703111
1079.66 0.142356 0.141565 0.167082
1079.86 0.132607 0.141457 -1.95168
1080.06 0.140912 0.141352 -0.0943054
1080.26 0.139642 0.141248 -0.343953
1080.46 0.145345 0.141145 0.882738
1080.66 0.145423 0.141045 0.90705
1080.86 0.144145 0.140946 0.666937
1081.06 0.151998 0.140848 2.23227
1081.26 0.146938 0.140753 1.2849
1081.46 0.147987 0.140659 1.49518
1081.66 0.1334 0.140566 -1.5598
1081.86 0.143612 0.140475 0.65343
1082.06 0.136191 0.140386 -0.922248
1082.26 0.144771 0.140298 0.936751
1082.46 0.139106 0.140211 -0.238225
1082.66 0.13897 0.140126 -0.250007
1082.86 0.134033 0.140042 -1.35522
1083.06 0.135693 0.13996 -0.927781
1083.26 0.140226 0.139879 0.0747137
1083.46 0.144343 0.1398 0.932777
1083.66 0.145617 0.139721 1.21966
1083.86 0.145109 0.139644 1.12769
1084.06 0.137832 0.139569 -0.377855
1084.26 0.136915 0.139494 -0.567648
1084.46 0.138601 0.139421 -0.178467
1084.66 0.136114 0.139349 -0.709902
1084.86 0.133032 0.139278 -1.35533
1085.06 0.137347 0.139209 -0.403957
1085.26 0.143811 0.13914 0.975917
1085.46 0.136228 0.139073 -0.620884
1085.66 0.141758 0.139007 0.585622
1085.86 0.143412 0.138942 0.928936
1086.06 0.13808 0.138878 -0.172764
1086.26 0.142104 0.138815 0.695388
1086.46 0.1361 0.138753 -0.58129
1086.66 0.140987 0.138692 0.483184
1086.86 0.13919 0.138632 0.11833
1087.06 0.140313 0.138574 0.366025
1087.26 0.13029 0.138516 -1.84141
1087.46 0.135835 0.138459 -0.571946
1087.66 0.140693 0.138403 0.490942
1087.86 0.131057 0.138348 -1.62889
1088.06 0.127627 0.138294 -2.45895
1088.26 0.136978 0.13824 -0.275597
1088.46 0.148414 0.138188 2.05954
1088.66 0.137575 0.138137 -0.123103
1088.86 0.136654 0.138086 -0.315047
1089.06 0.136571 0.138036 -0.317982
1089.26 0.138619 0.137987 0.137442
1089.46 0.142399 0.137939 0.949224
1089.66 0.136847 0.137892 -0.229343
1089.86 0.130311 0.137845 -1.69079
1090.06 0.136965 0.1378 -0.180651
1090.26 0.137453 0.137755 -0.0655388
1090.46 0.136781 0.13771 -0.19968
1090.66 0.126866 0.137667 -2.46904
1090.86 0.132496 0.137624 -1.14482
1091.06 0.136732 0.137582 -0.184996
1091.26 0.131346 0.13754 -1.39288
1091.46 0.132 0.1375 -1.23218
1091.66 0.132475 0.13746 -1.09773
