# Data from DA_120906_E1.h5 stim 1
# Ratiometric estimator mono-exponential fit
# Fitted model Ca = baseline+delta*exp(-(t-t0)/tau)
# nobs = 174
# number of degrees of freedom = 171
# baseline length = 7
# fit started from point 33
# estimated baseline 0.0294043 and standard error 0.000495979
# estimated delta 0.0328198 and standard error 0.00229856
# estimated tau 2.19606 and standard error 0.245396
# residual sum of squares: 189.522
# RSS per degree of freedom: 1.10831
# Probability of observing a larger of equal RSS per DOF under the null hypothesis: 0.15787

# rss per degree of freedom: 1.10831

# Time    Ca  Prediction  Residual
270.015 0.0353746 0.0294043 1.22705
270.115 0.021153 0.0294043 -1.84205
270.215 0.0297396 0.0294043 0.0714731
270.315 0.0255502 0.0294043 -0.821405
270.415 0.0191828 0.0294043 -2.3402
270.515 0.0215165 0.0294043 -1.77741
270.615 0.0226281 0.0294043 -1.50999

273.315 0.0595265 0.0622241 -0.456553
273.415 0.0647533 0.0607632 0.649355
273.515 0.0558332 0.0593672 -0.616233
273.615 0.0532315 0.0580334 -0.830655
273.715 0.0571071 0.056759 0.060707
273.815 0.0624751 0.0555413 1.17721
273.915 0.0470986 0.0543778 -1.35512
274.015 0.0466067 0.0532661 -1.24301
274.115 0.0606075 0.0522039 1.42729
274.215 0.0587424 0.051189 1.2929
274.315 0.0426311 0.0502193 -1.45425
274.415 0.0574913 0.0492927 1.39909
274.515 0.0457224 0.0484074 -0.498225
274.615 0.0444956 0.0475614 -0.583743
274.715 0.0602737 0.0467532 2.36237
274.815 0.0458016 0.0459809 -0.0342445
274.915 0.0453901 0.045243 0.0285288
275.015 0.0460707 0.0445379 0.2927
275.115 0.0527514 0.0438643 1.63709
275.215 0.041444 0.0432206 -0.348298
275.315 0.0431445 0.0426056 0.104738
275.415 0.0429468 0.0420179 0.179044
275.515 0.0351117 0.0414564 -1.30116
275.615 0.0442142 0.0409199 0.63162
275.715 0.04631 0.0404073 1.12501
275.815 0.0376182 0.0399175 -0.461745
275.915 0.0426627 0.0394495 0.619213
276.015 0.0350457 0.0390023 -0.789733
276.115 0.0265819 0.0385751 -2.57897
276.215 0.0400926 0.0381669 0.377105
276.315 0.0380975 0.0377768 0.0650052
276.415 0.0403749 0.0374041 0.597817
276.515 0.0394938 0.037048 0.494031
276.615 0.0328011 0.0367077 -0.806759
276.715 0.0421737 0.0363826 1.11734
276.815 0.0282682 0.036072 -1.6976
276.915 0.0385434 0.0357752 0.564894
277.015 0.0403857 0.0354916 0.973252
277.115 0.0340164 0.0352206 -0.248361
277.215 0.0354926 0.0349617 0.105774
277.315 0.0408802 0.0347143 1.20917
277.415 0.0384703 0.0344779 0.804873
277.515 0.0339234 0.0342521 -0.0691148
277.615 0.0346086 0.0340363 0.118857
277.715 0.0320489 0.0338301 -0.381564
277.815 0.0279558 0.0336331 -1.24389
277.915 0.0373232 0.0334448 0.79388
278.015 0.027924 0.033265 -1.15373
278.115 0.0361349 0.0330931 0.610049
278.215 0.0226818 0.0329289 -2.31248
278.315 0.0331259 0.032772 0.0738046
278.415 0.034475 0.0326221 0.390519
278.515 0.0314756 0.0324789 -0.211011
278.615 0.0372816 0.032342 0.989753
278.715 0.0339425 0.0322112 0.363959
278.815 0.0378098 0.0320863 1.18502
278.915 0.0313739 0.0319669 -0.12629
279.015 0.0319191 0.0318528 0.0143047
279.115 0.032422 0.0317438 0.147852
279.215 0.0200405 0.0316397 -2.69782
279.315 0.0282652 0.0315402 -0.722611
279.415 0.0294804 0.0314451 -0.425737
279.515 0.0335181 0.0313542 0.461075
279.615 0.0427631 0.0312674 2.28781
279.715 0.0216694 0.0311845 -2.13615
279.815 0.0383338 0.0311053 1.4934
279.915 0.0287503 0.0310295 -0.497012
280.015 0.0303762 0.0309572 -0.126331
280.115 0.0403725 0.0308881 1.93875
280.215 0.0299917 0.030822 -0.182911
280.315 0.0268923 0.0307589 -0.87528
280.415 0.0283789 0.0306986 -0.503466
280.515 0.0317425 0.030641 0.234024
280.615 0.0248137 0.0305859 -1.29513
280.715 0.0340761 0.0305333 0.748848
280.815 0.0281803 0.0304831 -0.511167
280.915 0.0276855 0.0304351 -0.598926
281.015 0.029315 0.0303892 -0.232426
281.115 0.0321873 0.0303453 0.396016
281.215 0.0280029 0.0303034 -0.489381
281.315 0.0337162 0.0302634 0.732811
281.415 0.0380599 0.0302252 1.65172
281.515 0.0335368 0.0301886 0.703522
281.615 0.0294975 0.0301537 -0.1443
281.715 0.0308211 0.0301204 0.15155
281.815 0.0326842 0.0300885 0.558704
281.915 0.0322852 0.030058 0.483336
282.015 0.0293432 0.0300289 -0.152908
282.115 0.0277698 0.0300011 -0.481884
282.215 0.0354618 0.0299746 1.12626
282.315 0.0282114 0.0299492 -0.384721
282.415 0.0258086 0.0299249 -0.92737
282.515 0.0374756 0.0299017 1.58483
282.615 0.0189264 0.0298796 -2.51623
282.715 0.0276551 0.0298584 -0.489222
282.815 0.0229126 0.0298382 -1.58812
282.915 0.0260337 0.0298189 -0.850055
283.015 0.0271598 0.0298005 -0.576928
283.115 0.0198914 0.0297828 -2.2948
283.215 0.0310885 0.029766 0.282974
283.315 0.0316071 0.0297499 0.401146
283.415 0.0317568 0.0297345 0.428355
283.515 0.0271576 0.0297198 -0.557601
283.615 0.0298601 0.0297057 0.03325
283.715 0.0270782 0.0296923 -0.592219
283.815 0.0217213 0.0296795 -1.85007
283.915 0.0365558 0.0296673 1.43983
284.015 0.0241499 0.0296556 -1.25114
284.115 0.0332118 0.0296444 0.759351
284.215 0.0293111 0.0296337 -0.0710397
284.315 0.0337128 0.0296235 0.892549
284.415 0.0353433 0.0296137 1.21032
284.515 0.0291989 0.0296044 -0.089063
284.615 0.0334495 0.0295955 0.821641
284.715 0.0362958 0.029587 1.42353
284.815 0.0346212 0.0295788 1.05615
284.915 0.0303366 0.0295711 0.163144
285.015 0.0346633 0.0295637 1.05815
285.115 0.031218 0.0295566 0.363891
285.215 0.0355137 0.0295498 1.28389
285.315 0.0245859 0.0295433 -1.1519
285.415 0.0279142 0.0295371 -0.361361
285.515 0.0277589 0.0295312 -0.405144
285.615 0.0270883 0.0295256 -0.544969
285.715 0.0271739 0.0295202 -0.533451
285.815 0.0271928 0.029515 -0.514305
285.915 0.0339896 0.0295101 0.966529
286.015 0.0348863 0.0295054 1.13995
286.115 0.037046 0.0295009 1.56411
286.215 0.0271486 0.0294966 -0.535086
286.315 0.0366975 0.0294925 1.5004
286.415 0.0297545 0.0294885 0.0585119
286.515 0.0309963 0.0294848 0.328181
286.615 0.026424 0.0294812 -0.688802
286.715 0.0253194 0.0294778 -0.929405
286.815 0.0252378 0.0294745 -0.983336
286.915 0.0267735 0.0294714 -0.608606
287.015 0.0298376 0.0294684 0.0809924
287.115 0.0371424 0.0294655 1.61029
287.215 0.0366826 0.0294628 1.51598
287.315 0.0284715 0.0294602 -0.221898
287.415 0.0281839 0.0294577 -0.28016
287.515 0.0319724 0.0294554 0.546252
287.615 0.0370467 0.0294531 1.59778
287.715 0.0390695 0.0294509 2.03665
287.815 0.0287856 0.0294488 -0.148746
287.915 0.0346852 0.0294469 1.1301
288.015 0.0259607 0.029445 -0.782029
288.115 0.0285346 0.0294431 -0.204784
288.215 0.0291603 0.0294414 -0.0619488
288.315 0.0427948 0.0294398 2.64646
288.415 0.0256483 0.0294382 -0.853278
288.515 0.0260955 0.0294367 -0.766629
288.615 0.031837 0.0294352 0.518744
288.715 0.0274196 0.0294339 -0.448957
288.815 0.0307028 0.0294325 0.27923
288.915 0.0270573 0.0294313 -0.530707
289.015 0.0311802 0.0294301 0.374203
289.115 0.0327121 0.0294289 0.704496
289.215 0.0349899 0.0294278 1.18607
289.315 0.0363555 0.0294268 1.42519
289.415 0.0366022 0.0294258 1.51348
289.515 0.0247193 0.0294248 -1.10915
289.615 0.027074 0.0294239 -0.516051
289.715 0.0249699 0.0294231 -1.02414
289.815 0.0350096 0.0294222 1.20816
289.915 0.0278102 0.0294214 -0.364204
