# Data from DA_121108_E3.h5 stim 4
# Ratiometric estimator mono-exponential fit
# Fitted model Ca = baseline+delta*exp(-(t-t0)/tau)
# nobs = 170
# number of degrees of freedom = 167
# baseline length = 7
# fit started from point 37
# estimated baseline 0.0888365 and standard error 0.000517875
# estimated delta 0.0504728 and standard error 0.000728252
# estimated tau 10.9868 and standard error 0.400463
# residual sum of squares: 216.145
# RSS per degree of freedom: 1.29428
# Probability of observing a larger of equal RSS per DOF under the null hypothesis: 0.0062332
# WARNING: THE FIT IS NOT GOOD!

# rss per degree of freedom: 1.29428

# Time    Ca  Prediction  Residual
1651.86 0.0964196 0.0888365 3.45235
1652.06 0.0921887 0.0888365 1.55293
1652.26 0.0932435 0.0888365 2.04096
1652.46 0.0944238 0.0888365 2.54283
1652.66 0.0929746 0.0888365 1.92763
1652.86 0.0888896 0.0888365 0.0253201
1653.06 0.0943688 0.0888365 2.57763

1659.26 0.136842 0.139309 -0.898015
1659.46 0.143467 0.138399 1.78622
1659.66 0.141665 0.137505 1.4661
1659.86 0.135569 0.136627 -0.384866
1660.06 0.131055 0.135765 -1.7724
1660.26 0.13589 0.134918 0.350296
1660.46 0.132852 0.134087 -0.457235
1660.66 0.135155 0.133271 0.693473
1660.86 0.129602 0.132469 -1.07216
1661.06 0.12817 0.131682 -1.32584
1661.26 0.133917 0.130909 1.12335
1661.46 0.125897 0.13015 -1.65273
1661.66 0.129566 0.129405 0.0611643
1661.86 0.124442 0.128673 -1.62741
1662.06 0.122999 0.127955 -1.96926
1662.26 0.124387 0.127249 -1.11695
1662.46 0.128785 0.126556 0.854325
1662.66 0.126876 0.125876 0.37998
1662.86 0.12657 0.125207 0.526529
1663.06 0.124006 0.124551 -0.212292
1663.26 0.125118 0.123907 0.471416
1663.46 0.125957 0.123274 1.03967
1663.66 0.121418 0.122653 -0.484141
1663.86 0.125821 0.122043 1.43469
1664.06 0.120742 0.121444 -0.281828
1664.26 0.121684 0.120856 0.326079
1664.46 0.120113 0.120278 -0.0655891
1664.66 0.117511 0.119711 -0.892667
1664.86 0.115725 0.119154 -1.38708
1665.06 0.114914 0.118607 -1.50872
1665.26 0.115664 0.11807 -0.978203
1665.46 0.118593 0.117543 0.423137
1665.66 0.117994 0.117025 0.39184
1665.86 0.119957 0.116517 1.36227
1666.06 0.116217 0.116017 0.0803785
1666.26 0.115703 0.115527 0.0706078
1666.46 0.11766 0.115046 1.04271
1666.66 0.11378 0.114573 -0.322811
1666.86 0.112333 0.114108 -0.747467
1667.06 0.112888 0.113653 -0.317739
1667.26 0.114688 0.113205 0.608698
1667.46 0.115179 0.112765 0.99211
1667.66 0.111652 0.112334 -0.284851
1667.86 0.111271 0.11191 -0.264041
1668.06 0.111671 0.111494 0.0733747
1668.26 0.10813 0.111085 -1.2453
1668.46 0.112147 0.110684 0.610122
1668.66 0.113955 0.110289 1.51693
1668.86 0.109484 0.109903 -0.174611
1669.06 0.109387 0.109522 -0.0570834
1669.26 0.111474 0.109149 0.972914
1669.46 0.111517 0.108783 1.14132
1669.66 0.109286 0.108423 0.36326
1669.86 0.111021 0.10807 1.24523
1670.06 0.11006 0.107723 0.995181
1670.26 0.10757 0.107382 0.0803364
1670.46 0.105129 0.107048 -0.828921
1670.66 0.105435 0.106719 -0.562736
1670.86 0.105908 0.106397 -0.210203
1671.06 0.11176 0.10608 2.39642
1671.26 0.109335 0.105769 1.49896
1671.46 0.104612 0.105463 -0.371044
1671.66 0.108838 0.105163 1.55741
1671.86 0.104808 0.104869 -0.0266681
1672.06 0.109209 0.10458 1.98907
1672.26 0.104174 0.104296 -0.0531556
1672.46 0.101147 0.104017 -1.28655
1672.66 0.109416 0.103743 2.39782
1672.86 0.104582 0.103474 0.481041
1673.06 0.106203 0.10321 1.28274
1673.26 0.104391 0.102951 0.624404
1673.46 0.107839 0.102696 2.20946
1673.66 0.104075 0.102446 0.703163
1673.86 0.103665 0.102201 0.639046
1674.06 0.107628 0.101959 2.42982
1674.26 0.10175 0.101723 0.011988
1674.46 0.101377 0.10149 -0.0505641
1674.66 0.101884 0.101262 0.275943
1674.86 0.100947 0.101038 -0.0406284
1675.06 0.098324 0.100818 -1.12423
1675.26 0.102961 0.100602 1.0336
1675.46 0.101973 0.100389 0.703551
1675.66 0.101124 0.100181 0.419976
1675.86 0.101347 0.0999764 0.61093
1676.06 0.0983341 0.0997754 -0.645313
1676.26 0.0995192 0.0995781 -0.0260799
1676.46 0.0981834 0.0993844 -0.544695
1676.66 0.10046 0.0991941 0.57568
1676.86 0.096449 0.0990072 -1.1626
1677.06 0.0968986 0.0988238 -0.865285
1677.26 0.100943 0.0986436 1.02468
1677.46 0.0984576 0.0984667 -0.00408455
1677.66 0.0963157 0.098293 -0.917683
1677.86 0.0994938 0.0981224 0.60809
1678.06 0.0960269 0.0979549 -0.890325
1678.26 0.098892 0.0977904 0.494092
1678.46 0.0999565 0.0976289 1.02827
1678.66 0.0998631 0.0974703 1.05557
1678.86 0.097119 0.0973145 -0.0878027
1679.06 0.0941887 0.0971616 -1.37953
1679.26 0.0974926 0.0970114 0.219491
1679.46 0.097879 0.096864 0.464201
1679.66 0.093941 0.0967191 -1.29429
1679.86 0.0953314 0.096577 -0.575454
1680.06 0.0955889 0.0964373 -0.392582
1680.26 0.0985931 0.0963002 1.0401
1680.46 0.0962258 0.0961656 0.0279767
1680.66 0.0945304 0.0960334 -0.693863
1680.86 0.0932246 0.0959035 -1.25951
1681.06 0.0964236 0.0957761 0.295678
1681.26 0.0968471 0.0956509 0.549829
1681.46 0.0922792 0.095528 -1.51489
1681.66 0.0921983 0.0954072 -1.46728
1681.86 0.0952667 0.0952887 -0.01011
1682.06 0.0931994 0.0951723 -0.919733
1682.26 0.0923518 0.095058 -1.28171
1682.46 0.0959267 0.0949458 0.450816
1682.66 0.097003 0.0948356 0.996372
1682.86 0.0917144 0.0947274 -1.45041
1683.06 0.0941563 0.0946211 -0.215466
1683.26 0.0979709 0.0945168 1.58124
1683.46 0.098031 0.0944143 1.62187
1683.66 0.0880314 0.0943137 -3.03174
1683.86 0.0929694 0.0942149 -0.575875
1684.06 0.0913376 0.0941179 -1.32756
1684.26 0.0943418 0.0940226 0.149169
1684.46 0.0882554 0.093929 -2.72662
1684.66 0.094546 0.0938372 0.327729
1684.86 0.096353 0.093747 1.18631
1685.06 0.0955386 0.0936584 0.869112
1685.26 0.0936718 0.0935714 0.046587
1685.46 0.0917323 0.093486 -0.822873
1685.66 0.0919038 0.0934021 -0.704659
1685.86 0.0927874 0.0933198 -0.248451
1686.06 0.092852 0.0932389 -0.181385
1686.26 0.0912611 0.0931595 -0.899883
1686.46 0.0940667 0.0930815 0.459588
1686.66 0.0927358 0.0930049 -0.124967
1686.86 0.090127 0.0929297 -1.32688
1687.06 0.0922215 0.0928559 -0.296335
1687.26 0.0898288 0.0927834 -1.40667
1687.46 0.0953856 0.0927122 1.23734
1687.66 0.0911575 0.0926423 -0.704994
1687.86 0.0914015 0.0925736 -0.554973
1688.06 0.0897282 0.0925062 -1.33704
1688.26 0.0868642 0.09244 -2.70663
1688.46 0.091754 0.092375 -0.28805
1688.66 0.0918552 0.0923112 -0.214733
1688.86 0.0904307 0.0922485 -0.87002
1689.06 0.0894574 0.0921869 -1.3062
1689.26 0.0882279 0.0921265 -1.8798
1689.46 0.0908629 0.0920672 -0.571701
1689.66 0.0925238 0.0920089 0.244567
1689.86 0.095085 0.0919516 1.44246
1690.06 0.0928154 0.0918955 0.429121
1690.26 0.0909579 0.0918403 -0.41663
1690.46 0.0924136 0.0917861 0.289957
1690.66 0.0882162 0.0917329 -1.69441
1690.86 0.0913061 0.0916806 -0.177944
1691.06 0.0920197 0.0916293 0.182823
1691.26 0.0875977 0.0915789 -1.9335
1691.46 0.0875898 0.0915295 -1.90026
1691.66 0.091706 0.0914809 0.105249
