# Data from DA_121108_E3.h5 stim 3
# Ratiometric estimator mono-exponential fit
# Fitted model Ca = baseline+delta*exp(-(t-t0)/tau)
# nobs = 155
# number of degrees of freedom = 152
# baseline length = 7
# fit started from point 52
# estimated baseline 0.0733931 and standard error 0.000767053
# estimated delta 0.0653986 and standard error 0.000922069
# estimated tau 7.57061 and standard error 0.243137
# residual sum of squares: 230.397
# RSS per degree of freedom: 1.51577
# Probability of observing a larger of equal RSS per DOF under the null hypothesis: 4.20253e-05
# WARNING: THE FIT IS NOT GOOD!

# rss per degree of freedom: 1.51577

# Time    Ca  Prediction  Residual
1031.25 0.0692478 0.0733931 -1.84493
1031.35 0.0686112 0.0733931 -2.12797
1031.45 0.0679997 0.0733931 -2.40601
1031.55 0.0714298 0.0733931 -0.857054
1031.65 0.0764387 0.0733931 1.30185
1031.75 0.0695188 0.0733931 -1.72353
1031.85 0.0690075 0.0733931 -1.95718

1036.45 0.141439 0.138792 0.772643
1036.55 0.142478 0.137934 1.32143
1036.65 0.14378 0.137087 1.9098
1036.75 0.142105 0.136251 1.69778
1036.85 0.139742 0.135426 1.26698
1036.95 0.143327 0.134612 2.52027
1037.05 0.137899 0.133809 1.21702
1037.15 0.140316 0.133016 2.11307
1037.25 0.135815 0.132234 1.05057
1037.35 0.13254 0.131461 0.33031
1037.45 0.137558 0.130699 2.03882
1037.55 0.131262 0.129948 0.40105
1037.65 0.12969 0.129205 0.150295
1037.75 0.130494 0.128473 0.616731
1037.85 0.130241 0.12775 0.764454
1037.95 0.1296 0.127037 0.786227
1038.05 0.127384 0.126333 0.3329
1038.15 0.124204 0.125638 -0.458274
1038.25 0.120244 0.124953 -1.52062
1038.35 0.127999 0.124276 1.15462
1038.45 0.117148 0.123609 -2.12752
1038.55 0.119963 0.12295 -0.965234
1038.65 0.120064 0.122299 -0.71977
1038.75 0.119339 0.121658 -0.773804
1038.85 0.123871 0.121024 0.91212
1038.95 0.11999 0.120399 -0.133428
1039.05 0.120002 0.119782 0.0719754
1039.15 0.115443 0.119174 -1.25196
1039.25 0.114212 0.118573 -1.45923
1039.35 0.114996 0.11798 -0.99413
1039.45 0.112125 0.117395 -1.77973
1039.55 0.115656 0.116818 -0.387399
1039.65 0.117588 0.116248 0.449085
1039.75 0.11052 0.115685 -1.75533
1039.85 0.112679 0.11513 -0.836442
1039.95 0.111339 0.114583 -1.10917
1040.05 0.111017 0.114042 -1.04207
1040.15 0.115713 0.113509 0.734862
1040.25 0.115513 0.112982 0.858636
1040.35 0.112363 0.112463 -0.0344331
1040.45 0.109064 0.11195 -0.998091
1040.55 0.11527 0.111444 1.27846
1040.65 0.105755 0.110945 -1.86307
1040.75 0.108991 0.110452 -0.504936
1040.85 0.107117 0.109966 -1.00928
1040.95 0.10343 0.109486 -2.13175
1041.05 0.106026 0.109012 -1.06787
1041.15 0.109726 0.108545 0.410274
1041.25 0.106101 0.108084 -0.70379
1041.35 0.101655 0.107629 -2.18838
1041.45 0.109438 0.107179 0.79263
1041.55 0.100657 0.106736 -2.24525
1041.65 0.101467 0.106298 -1.73526
1041.75 0.0987887 0.105867 -2.57929
1041.85 0.103333 0.105441 -0.756251
1041.95 0.104155 0.10502 -0.307462
1042.05 0.103912 0.104605 -0.248177
1042.15 0.103975 0.104195 -0.0786376
1042.25 0.105111 0.103791 0.469175
1042.35 0.0996153 0.103392 -1.39057
1042.45 0.102146 0.102999 -0.30429
1042.55 0.100229 0.10261 -0.873015
1042.65 0.100945 0.102227 -0.470463
1042.75 0.102027 0.101848 0.0652458
1042.85 0.0975493 0.101475 -1.45516
1042.95 0.0975937 0.101107 -1.28879
1043.05 0.0990108 0.100743 -0.644379
1043.15 0.0993537 0.100384 -0.382814
1043.25 0.0995011 0.10003 -0.194759
1043.35 0.0978453 0.0996803 -0.675155
1043.45 0.101143 0.0993354 0.651981
1043.55 0.0969076 0.098995 -0.783712
1043.65 0.100081 0.098659 0.532273
1043.75 0.103452 0.0983275 1.83794
1043.85 0.0923112 0.0980003 -2.16313
1043.95 0.0941134 0.0976774 -1.34993
1044.05 0.0955594 0.0973587 -0.674854
1044.15 0.102532 0.0970443 2.02981
1044.25 0.0995046 0.0967339 1.01491
1044.35 0.0981799 0.0964276 0.664063
1044.45 0.0940374 0.0961254 -0.790922
1044.55 0.0992582 0.0958271 1.25717
1044.65 0.0951422 0.0955327 -0.145013
1044.75 0.0987817 0.0952422 1.30655
1044.85 0.0886098 0.0949555 -2.52879
1044.95 0.0910347 0.0946725 -1.41073
1045.05 0.0940813 0.0943933 -0.119213
1045.15 0.093153 0.0941177 -0.371454
1045.25 0.0900595 0.0938458 -1.48421
1045.35 0.0904729 0.0935774 -1.21212
1045.45 0.0909851 0.0933125 -0.905865
1045.55 0.0892128 0.0930511 -1.53914
1045.65 0.0958853 0.0927932 1.16693
1045.75 0.0950024 0.0925386 0.940299
1045.85 0.093634 0.0922874 0.512493
1045.95 0.0934442 0.0920395 0.539415
1046.05 0.0968087 0.0917948 1.87062
1046.15 0.0969956 0.0915533 1.99603
1046.25 0.0932448 0.091315 0.734404
1046.35 0.0887642 0.0910798 -0.91532
1046.45 0.0895353 0.0908477 -0.520087
1046.55 0.0924856 0.0906187 0.722581
1046.65 0.0922378 0.0903927 0.718416
1046.75 0.0913201 0.0901696 0.453519
1046.85 0.090186 0.0899495 0.0925754
1046.95 0.0894033 0.0897322 -0.131589
1047.05 0.08945 0.0895178 -0.0262863
1047.15 0.0935159 0.0893062 1.63006
1047.25 0.0850251 0.0890974 -1.63182
1047.35 0.0869638 0.0888913 -0.776407
1047.45 0.0908862 0.088688 0.860097
1047.55 0.0897466 0.0884873 0.494688
1047.65 0.0900578 0.0882892 0.689405
1047.75 0.088024 0.0880937 -0.0273478
1047.85 0.0897368 0.0879008 0.722709
1047.95 0.087918 0.0877104 0.0819988
1048.05 0.0891306 0.0875226 0.628255
1048.15 0.0909644 0.0873372 1.40686
1048.25 0.0881803 0.0871542 0.406224
1048.35 0.0867156 0.0869736 -0.103983
1048.45 0.0881034 0.0867954 0.519491
1048.55 0.084493 0.0866195 -0.865063
1048.65 0.0925251 0.086446 2.32875
1048.75 0.0878795 0.0862747 0.638152
1048.85 0.0897669 0.0861057 1.43663
1048.95 0.0887098 0.0859389 1.08755
1049.05 0.0869941 0.0857742 0.489703
1049.15 0.0860631 0.0856118 0.180411
1049.25 0.0938158 0.0854514 3.22
1049.35 0.0858403 0.0852932 0.223083
1049.45 0.0936134 0.085137 3.26284
1049.55 0.0856121 0.0849829 0.250672
1049.65 0.0875221 0.0848309 1.06668
1049.75 0.0897325 0.0846808 1.99401
1049.85 0.0859519 0.0845327 0.566888
1049.95 0.0835897 0.0843865 -0.323884
1050.05 0.0853264 0.0842422 0.436158
1050.15 0.0866021 0.0840999 1.00748
1050.25 0.0865706 0.0839594 1.03771
1050.35 0.0883987 0.0838207 1.80863
1050.45 0.0863972 0.0836839 1.08226
1050.55 0.0841968 0.0835488 0.258728
1050.65 0.0813943 0.0834156 -0.838461
1050.75 0.0854658 0.0832841 0.882366
1050.85 0.085162 0.0831543 0.81075
1050.95 0.0858452 0.0830262 1.1434
1051.05 0.084046 0.0828998 0.467607
1051.15 0.0817568 0.082775 -0.416884
