# Data from DA_121108_E3.h5 stim 2
# Ratiometric estimator mono-exponential fit
# Fitted model Ca = baseline+delta*exp(-(t-t0)/tau)
# nobs = 173
# number of degrees of freedom = 170
# baseline length = 7
# fit started from point 34
# estimated baseline 0.0369405 and standard error 0.000330969
# estimated delta 0.060833 and standard error 0.00144917
# estimated tau 2.59043 and standard error 0.0976462
# residual sum of squares: 186.849
# RSS per degree of freedom: 1.09911
# Probability of observing a larger of equal RSS per DOF under the null hypothesis: 0.178507

# rss per degree of freedom: 1.09911

# Time    Ca  Prediction  Residual
590.641 0.033773 0.0369405 -1.15252
590.741 0.0313969 0.0369405 -2.07069
590.841 0.0358875 0.0369405 -0.378424
590.941 0.0334108 0.0369405 -1.27219
591.041 0.0370064 0.0369405 0.0234971
591.141 0.0357045 0.0369405 -0.44734
591.241 0.0292132 0.0369405 -2.93389

594.041 0.0941628 0.0977735 -0.859965
594.141 0.0966537 0.0954699 0.282879
594.241 0.0874919 0.0932535 -1.45702
594.341 0.0959146 0.091121 1.15509
594.441 0.0907423 0.0890693 0.414468
594.541 0.0923635 0.0870953 1.29128
594.641 0.0892163 0.085196 1.00421
594.741 0.0768858 0.0833687 -1.73626
594.841 0.0890586 0.0816105 1.85386
594.941 0.0808758 0.079919 0.251215
595.041 0.0831094 0.0782915 1.26644
595.141 0.068828 0.0767256 -2.24444
595.241 0.0785191 0.075219 0.882444
595.341 0.0765401 0.0737695 0.76024
595.441 0.0779561 0.0723748 1.51933
595.541 0.0734509 0.071033 0.682472
595.641 0.0692963 0.069742 -0.12597
595.741 0.0666311 0.0684999 -0.549036
595.841 0.0635938 0.0673048 -1.09607
595.941 0.0676964 0.0661549 0.454362
596.041 0.0609027 0.0650486 -1.24651
596.141 0.0622089 0.0639842 -0.536727
596.241 0.0611555 0.0629601 -0.540208
596.341 0.0574069 0.0619748 -1.39427
596.441 0.0634629 0.0610268 0.729726
596.541 0.0631445 0.0601147 0.891738
596.641 0.0559406 0.0592372 -1.00869
596.741 0.0554505 0.0583928 -0.931475
596.841 0.0548619 0.0575805 -0.847262
596.941 0.0528266 0.0567989 -1.27395
597.041 0.0548615 0.0560469 -0.376336
597.141 0.0538108 0.0553234 -0.479367
597.241 0.0518589 0.0546272 -0.888723
597.341 0.0543823 0.0539575 0.134797
597.441 0.0570951 0.0533131 1.17979
597.541 0.0530573 0.0526931 0.116473
597.641 0.0549535 0.0520966 0.903224
597.741 0.0520231 0.0515226 0.161296
597.841 0.0515746 0.0509704 0.191702
597.941 0.0523324 0.0504391 0.602703
598.041 0.0519033 0.049928 0.625381
598.141 0.050126 0.0494362 0.230482
598.241 0.0533015 0.048963 1.39102
598.341 0.0437283 0.0485077 -1.61484
598.441 0.0445027 0.0480697 -1.21447
598.541 0.0438314 0.0476482 -1.28413
598.641 0.0456316 0.0472428 -0.537821
598.741 0.0469171 0.0468526 0.0211442
598.841 0.0454255 0.0464773 -0.35443
598.941 0.046005 0.0461161 -0.0377562
599.041 0.0481818 0.0457687 0.815523
599.141 0.045362 0.0454344 -0.0245974
599.241 0.0479218 0.0451127 0.936292
599.341 0.0433767 0.0448033 -0.490344
599.441 0.0437875 0.0445055 -0.243315
599.541 0.0427061 0.044219 -0.525371
599.641 0.049825 0.0439434 1.94622
599.741 0.0437553 0.0436782 0.0270974
599.841 0.043645 0.0434231 0.0768585
599.941 0.0414845 0.0431776 -0.591495
600.041 0.0402405 0.0429414 -0.96133
600.141 0.0393168 0.0427142 -1.21124
600.241 0.0470417 0.0424955 1.54938
600.341 0.0437968 0.0422852 0.515416
600.441 0.0403232 0.0420828 -0.615833
600.541 0.0458299 0.0418881 1.32885
600.641 0.0442935 0.0417007 0.899978
600.741 0.0440916 0.0415204 0.903301
600.841 0.0430709 0.041347 0.600696
600.941 0.0423158 0.0411801 0.397551
601.041 0.0398496 0.0410196 -0.416037
601.141 0.0427595 0.0408651 0.661924
601.241 0.0431274 0.0407165 0.83271
601.341 0.041065 0.0405735 0.172673
601.441 0.04535 0.040436 1.6753
601.541 0.0397566 0.0403036 -0.190021
601.641 0.0413925 0.0401762 0.423208
601.741 0.0402267 0.0400537 0.0616035
601.841 0.0442206 0.0399358 1.44419
601.941 0.0360315 0.0398224 -1.38793
602.041 0.0403216 0.0397133 0.215193
602.141 0.0447503 0.0396083 1.77841
602.241 0.0407623 0.0395072 0.442372
602.341 0.0379354 0.03941 -0.523698
602.441 0.0381839 0.0393165 -0.410596
602.541 0.0398064 0.0392265 0.204788
602.641 0.034941 0.03914 -1.56704
602.741 0.0408339 0.0390567 0.620576
602.841 0.035069 0.0389766 -1.42738
602.941 0.035858 0.0388995 -1.1212
603.041 0.0397785 0.0388253 0.34337
603.141 0.0369422 0.0387539 -0.656188
603.241 0.0371884 0.0386852 -0.542154
603.341 0.0431462 0.0386192 1.58684
603.441 0.0397547 0.0385556 0.427386
603.541 0.0344048 0.0384944 -1.5448
603.641 0.0370276 0.0384356 -0.505188
603.741 0.039458 0.038379 0.390309
603.841 0.0360782 0.0383245 -0.823687
603.941 0.0377465 0.0382721 -0.188216
604.041 0.0396575 0.0382217 0.508784
604.141 0.0382475 0.0381732 0.0265073
604.241 0.0400428 0.0381265 0.694756
604.341 0.0378407 0.0380816 -0.0889037
604.441 0.0395263 0.0380384 0.541436
604.541 0.0387568 0.0379968 0.27527
604.641 0.0424051 0.0379568 1.57138
604.741 0.0347319 0.0379183 -1.18937
604.841 0.0358779 0.0378813 -0.743314
604.941 0.0369583 0.0378457 -0.325245
605.041 0.0422779 0.0378114 1.58776
605.141 0.0408994 0.0377784 1.12262
605.241 0.0378312 0.0377467 0.030449
605.341 0.0394839 0.0377161 0.643467
605.441 0.0388133 0.0376868 0.406375
605.541 0.0419812 0.0376585 1.49567
605.641 0.0353982 0.0376313 -0.819535
605.741 0.0348812 0.0376052 -1.01671
605.841 0.0377195 0.03758 0.0516641
605.941 0.0386554 0.0375558 0.404096
606.041 0.0383089 0.0375325 0.285336
606.141 0.0417985 0.0375101 1.55391
606.241 0.0352633 0.0374885 -0.832444
606.341 0.0400418 0.0374677 0.923135
606.441 0.0349611 0.0374478 -0.909259
606.541 0.0304981 0.0374286 -2.68589
606.641 0.0408661 0.0374101 1.21494
606.741 0.0343823 0.0373923 -1.15545
606.841 0.0383373 0.0373752 0.354487
606.941 0.0392592 0.0373587 0.691376
607.041 0.041004 0.0373429 1.31713
607.141 0.0403141 0.0373277 1.05595
607.241 0.0379027 0.037313 0.21418
607.341 0.0352362 0.0372989 -0.766832
607.441 0.0337181 0.0372853 -1.32939
607.541 0.0386774 0.0372723 0.514709
607.641 0.0381285 0.0372597 0.31458
607.741 0.0348948 0.0372476 -0.877726
607.841 0.0355326 0.037236 -0.62973
607.941 0.0406559 0.0372248 1.23994
608.041 0.0388978 0.037214 0.606978
608.141 0.0432531 0.0372037 2.13801
608.241 0.0397168 0.0371937 0.904802
608.341 0.0381558 0.0371841 0.355023
608.441 0.0389805 0.0371749 0.648489
608.541 0.0340846 0.037166 -1.16868
608.641 0.0436132 0.0371575 2.28645
608.741 0.0316151 0.0371493 -2.13329
608.841 0.0316034 0.0371414 -2.13903
608.941 0.0361844 0.0371338 -0.343676
609.041 0.0347242 0.0371264 -0.89486
609.141 0.0393578 0.0371194 0.823243
609.241 0.0368079 0.0371126 -0.112342
609.341 0.0393643 0.0371061 0.819895
609.441 0.0334666 0.0370998 -1.38272
609.541 0.0342765 0.0370938 -1.06237
609.641 0.0393529 0.037088 0.821135
609.741 0.040826 0.0370824 1.35484
609.841 0.041513 0.037077 1.57282
609.941 0.0307528 0.0370719 -2.39324
610.041 0.0403447 0.0370669 1.19364
610.141 0.0402572 0.0370621 1.15844
610.241 0.0366997 0.0370575 -0.133222
610.341 0.0395263 0.0370531 0.904409
610.441 0.0402523 0.0370488 1.15595
610.541 0.035085 0.0370447 -0.734696
