# Data from DA_121108_E3.h5 stim 1
# Ratiometric estimator mono-exponential fit
# Fitted model Ca = baseline+delta*exp(-(t-t0)/tau)
# nobs = 186
# number of degrees of freedom = 183
# baseline length = 7
# fit started from point 21
# estimated baseline 0.0273222 and standard error 0.000805364
# estimated delta 0.0181871 and standard error 0.00416596
# estimated tau 2.03877 and standard error 0.745111
# residual sum of squares: 191.363
# RSS per degree of freedom: 1.0457
# Probability of observing a larger of equal RSS per DOF under the null hypothesis: 0.320831

# rss per degree of freedom: 1.0457

# Time    Ca  Prediction  Residual
270.015 0.0200515 0.0273222 -0.827936
270.115 0.0360377 0.0273222 0.916322
270.215 0.0409826 0.0273222 1.4035
270.315 0.0232405 0.0273222 -0.44936
270.415 0.039283 0.0273222 1.19328
270.515 0.0360456 0.0273222 0.965378
270.615 0.0313624 0.0273222 0.456055

272.115 0.0469853 0.0455093 0.142538
272.215 0.042656 0.0446388 -0.192813
272.315 0.0391115 0.0438099 -0.486697
272.415 0.0393328 0.0430207 -0.389445
272.515 0.0410869 0.0422693 -0.120657
272.615 0.0425564 0.0415538 0.0973461
272.715 0.0451407 0.0408726 0.417518
272.815 0.0390929 0.040224 -0.114193
272.915 0.0540368 0.0396065 1.40438
273.015 0.0402253 0.0390185 0.125727
273.115 0.0295233 0.0384586 -0.970129
273.215 0.0343839 0.0379256 -0.363068
273.315 0.0363432 0.037418 -0.113016
273.415 0.0209212 0.0369348 -1.81452
273.515 0.0454738 0.0364747 0.897653
273.615 0.0326178 0.0360366 -0.372401
273.715 0.0477961 0.0356195 1.22877
273.815 0.0534132 0.0352223 1.80179
273.915 0.0418815 0.0348442 0.711505
274.015 0.0448636 0.0344841 1.0441
274.115 0.0421111 0.0341413 0.800683
274.215 0.0329358 0.0338149 -0.0937972
274.315 0.0360608 0.0335042 0.27038
274.415 0.0167645 0.0332083 -1.98975
274.515 0.0239744 0.0329265 -1.04728
274.615 0.0293149 0.0326583 -0.370464
274.715 0.0512837 0.0324029 1.90765
274.815 0.0332122 0.0321597 0.10911
274.915 0.0332584 0.0319281 0.1451
275.015 0.0338021 0.0317077 0.239863
275.115 0.0311194 0.0314977 -0.0413266
275.215 0.0246114 0.0312979 -0.773663
275.315 0.0376096 0.0311076 0.714653
275.415 0.0260384 0.0309264 -0.527632
275.515 0.0462279 0.0307539 1.61531
275.615 0.0284941 0.0305896 -0.233333
275.715 0.0217647 0.0304332 -0.968967
275.815 0.0268168 0.0302843 -0.405943
275.915 0.0301501 0.0301425 0.000850064
276.015 0.0158614 0.0300075 -1.70318
276.115 0.0290698 0.029879 -0.0914748
276.215 0.023321 0.0297566 -0.7504
276.315 0.045994 0.0296401 1.68311
276.415 0.0341578 0.0295292 0.520836
276.515 0.0217442 0.0294235 -0.896698
276.615 0.0245619 0.0293229 -0.570647
276.715 0.0466255 0.0292272 1.81404
276.815 0.0350173 0.029136 0.657351
276.915 0.0258296 0.0290492 -0.38515
277.015 0.026049 0.0289665 -0.321581
277.115 0.0191102 0.0288878 -1.17494
277.615 0.0322059 0.0285473 0.414572
277.715 0.0417471 0.0284887 1.37061
277.815 0.0346748 0.0284328 0.701627
277.915 0.0402003 0.0283797 1.26132
278.015 0.0315117 0.0283291 0.34372
278.115 0.019534 0.0282809 -1.03907
278.215 0.0183769 0.028235 -1.19429
278.315 0.0187847 0.0281913 -1.10999
278.415 0.023908 0.0281497 -0.492938
278.515 0.0439366 0.0281101 1.63204
278.615 0.0319847 0.0280724 0.424713
278.715 0.0382131 0.0280365 1.11968
278.815 0.0218462 0.0280023 -0.729078
278.915 0.0173423 0.0279697 -1.29501
279.015 0.0286736 0.0279387 0.0827662
279.115 0.025474 0.0279092 -0.284691
279.215 0.0370444 0.0278811 1.02652
279.315 0.0179468 0.0278544 -1.20744
279.415 0.0320377 0.0278289 0.47446
279.515 0.0141025 0.0278047 -1.72942
279.615 0.0259843 0.0277816 -0.218935
279.715 0.0120766 0.0277596 -1.99757
279.815 0.025573 0.0277386 -0.258126
279.915 0.0201303 0.0277187 -0.885883
280.015 0.0421898 0.0276997 1.54858
280.115 0.0387659 0.0276817 1.22199
280.215 0.0173248 0.0276645 -1.3208
280.315 0.0185743 0.0276481 -1.12366
280.415 0.0204384 0.0276325 -0.907282
280.515 0.0258964 0.0276176 -0.206408
280.615 0.042787 0.0276035 1.63626
280.715 0.0387879 0.02759 1.21583
280.815 0.0264209 0.0275772 -0.131819
280.915 0.0378344 0.027565 1.14321
281.015 0.0411547 0.0275534 1.46586
281.115 0.0217632 0.0275423 -0.713722
281.215 0.0358925 0.0275318 0.899125
281.315 0.0313237 0.0275218 0.44458
281.415 0.0330251 0.0275122 0.580716
281.515 0.0136316 0.0275031 -1.79578
281.615 0.0441348 0.0274945 1.80955
281.715 0.0241115 0.0274862 -0.411816
281.815 0.0369185 0.0274784 1.02802
281.915 0.0258135 0.0274709 -0.202699
282.015 0.047417 0.0274638 2.08358
282.115 0.0276494 0.027457 0.0219228
282.215 0.022351 0.0274505 -0.621757
282.315 0.0359287 0.0274444 0.947432
282.415 0.0271334 0.0274386 -0.0368632
282.515 0.0322202 0.027433 0.53696
282.615 0.0179939 0.0274277 -1.15129
282.715 0.0235508 0.0274226 -0.47293
282.815 0.0216188 0.0274178 -0.710439
282.915 0.0225997 0.0274133 -0.590787
283.015 0.0186352 0.0274089 -1.08823
283.115 0.026984 0.0274048 -0.052733
283.215 0.0236842 0.0274008 -0.45539
283.315 0.0246529 0.027397 -0.33232
283.415 0.0378976 0.0273935 1.17044
283.515 0.0201891 0.02739 -0.927136
283.615 0.0368825 0.0273868 1.06423
283.715 0.0484823 0.0273837 2.23992
283.815 0.0265816 0.0273808 -0.0969427
283.915 0.0259164 0.027378 -0.179555
284.015 0.0258231 0.0273753 -0.194119
284.115 0.0272846 0.0273728 -0.0107032
284.215 0.0300552 0.0273703 0.332821
284.315 0.0138049 0.027368 -1.6817
284.415 0.0212197 0.0273658 -0.761007
284.515 0.0246788 0.0273638 -0.330424
284.615 0.0190453 0.0273618 -1.04212
284.715 0.0231393 0.0273599 -0.529057
284.815 0.024804 0.0273581 -0.310715
284.915 0.0279963 0.0273564 0.0766036
285.015 0.0282237 0.0273547 0.102379
285.115 0.026537 0.0273532 -0.0986528
285.215 0.0261591 0.0273517 -0.15336
285.315 0.0270397 0.0273503 -0.0366971
285.415 0.0357119 0.0273489 0.969502
285.515 0.0310086 0.0273477 0.434649
285.615 0.032223 0.0273464 0.577527
285.715 0.0365994 0.0273453 1.09056
285.815 0.0305659 0.0273442 0.383204
285.915 0.0276383 0.0273431 0.0363019
286.015 0.0149392 0.0273421 -1.647
286.115 0.0395164 0.0273412 1.44918
286.215 0.037097 0.0273403 1.13774
286.315 0.016216 0.0273394 -1.47676
286.415 0.0347501 0.0273386 0.850144
286.515 0.0280373 0.0273378 0.0832276
286.615 0.0338585 0.0273371 0.80513
286.715 0.0214843 0.0273363 -0.725149
286.815 0.0406026 0.0273357 1.46134
286.915 0.0298621 0.027335 0.306506
287.015 0.0354259 0.0273344 0.982957
287.115 -0.00144647 0.0273338 -4.17222
287.215 0.0337523 0.0273333 0.745105
287.315 0.0170316 0.0273327 -1.36439
287.415 0.0378881 0.0273322 1.22459
287.515 0.0290181 0.0273318 0.200324
287.615 0.0400069 0.0273313 1.41732
287.715 0.0215699 0.0273309 -0.74044
287.815 0.0177294 0.0273305 -1.196
287.915 0.00995985 0.0273301 -2.34319
288.015 0.032751 0.0273297 0.626006
288.115 0.0332511 0.0273293 0.721747
288.215 0.0275866 0.027329 0.0319327
288.315 0.0173155 0.0273287 -1.31292
288.415 0.029805 0.0273284 0.305808
288.515 0.0187015 0.0273281 -1.14585
288.615 0.0339176 0.0273278 0.767177
288.715 0.0391385 0.0273275 1.32892
288.815 0.0213673 0.0273273 -0.745134
288.915 0.0322951 0.027327 0.603923
289.015 0.0431007 0.0273268 1.76359
289.115 0.0268337 0.0273266 -0.0611881
289.215 0.0287941 0.0273264 0.179335
289.315 0.0361034 0.0273262 1.0648
289.415 0.0281353 0.027326 0.100605
289.515 0.0281021 0.0273258 0.1032
289.615 0.0240623 0.0273256 -0.413613
289.715 0.0216858 0.0273255 -0.732825
289.815 0.0373967 0.0273253 1.17186
289.915 0.0266046 0.0273252 -0.0889759
290.015 0.0324075 0.027325 0.61372
290.115 0.0263311 0.0273249 -0.125885
290.215 0.0445275 0.0273248 2.01946
290.315 0.0126287 0.0273246 -2.00738
