# Data from DA_121108_E1.h5 stim 3
# Ratiometric estimator mono-exponential fit
# Fitted model Ca = baseline+delta*exp(-(t-t0)/tau)
# nobs = 144
# number of degrees of freedom = 141
# baseline length = 7
# fit started from point 63
# estimated baseline 0.065251 and standard error 0.00067101
# estimated delta 0.0188987 and standard error 0.000765734
# estimated tau 6.09501 and standard error 0.615253
# residual sum of squares: 135.816
# RSS per degree of freedom: 0.963232
# Probability of observing a larger of equal RSS per DOF under the null hypothesis: 0.607479

# rss per degree of freedom: 0.963232

# Time    Ca  Prediction  Residual
1376.28 0.0677132 0.065251 1.11672
1376.38 0.0623934 0.065251 -1.33792
1376.48 0.0655937 0.065251 0.157009
1376.58 0.0633847 0.065251 -0.859756
1376.68 0.062029 0.065251 -1.51427
1376.78 0.0689536 0.065251 1.6681
1376.88 0.0612656 0.065251 -1.89081

1382.58 0.0825741 0.0841497 -0.646567
1382.68 0.0825978 0.0838422 -0.511783
1382.78 0.0886446 0.0835396 1.99616
1382.88 0.0792153 0.083242 -1.67227
1382.98 0.0849021 0.0829493 0.788226
1383.08 0.0849374 0.0826613 0.920839
1383.18 0.0846367 0.0823779 0.918937
1383.28 0.0875448 0.0820992 2.15299
1383.38 0.0819673 0.0818251 0.0578559
1383.48 0.0808462 0.0815554 -0.291259
1383.58 0.0771474 0.08129 -1.73896
1383.68 0.0824508 0.081029 0.577166
1383.78 0.0786055 0.0807723 -0.916285
1383.88 0.0802804 0.0805197 -0.0988469
1383.98 0.079075 0.0802712 -0.498563
1384.08 0.0811622 0.0800268 0.468728
1384.18 0.0801107 0.0797864 0.134636
1384.28 0.0810864 0.0795498 0.633552
1384.38 0.078511 0.0793171 -0.33191
1384.48 0.0829247 0.0790882 1.56399
1384.58 0.0826912 0.0788631 1.57132
1384.68 0.0782465 0.0786416 -0.166198
1384.78 0.0750983 0.0784237 -1.42555
1384.88 0.0767699 0.0782093 -0.610992
1384.98 0.0791458 0.0779984 0.479837
1385.08 0.0762021 0.077791 -0.679605
1385.18 0.0799332 0.0775869 0.97026
1385.28 0.0770564 0.0773862 -0.139974
1385.38 0.0752323 0.0771887 -0.846997
1385.48 0.0768715 0.0769945 -0.0520668
1385.58 0.0764073 0.0768034 -0.168704
1385.68 0.0744127 0.0766154 -0.973223
1385.78 0.0771725 0.0764304 0.312129
1385.88 0.0774465 0.0762485 0.512657
1385.98 0.0747163 0.0760695 -0.577133
1386.08 0.0756029 0.0758935 -0.124787
1386.18 0.0714503 0.0757203 -1.89767
1386.28 0.0741153 0.0755499 -0.623013
1386.38 0.0745525 0.0753824 -0.361373
1386.48 0.0710065 0.0752175 -1.8672
1386.58 0.0721301 0.0750553 -1.30197
1386.68 0.0756952 0.0748958 0.339829
1386.78 0.0747759 0.0747388 0.0159681
1386.88 0.0775767 0.0745844 1.26427
1386.98 0.0740743 0.0744325 -0.153405
1387.08 0.0708198 0.0742831 -1.52973
1387.18 0.0797005 0.0741361 2.30343
1387.28 0.0816089 0.0739916 3.14618
1387.38 0.0741615 0.0738493 0.135769
1387.48 0.0749664 0.0737094 0.53134
1387.58 0.0719741 0.0735718 -0.701379
1387.68 0.0715533 0.0734364 -0.823108
1387.78 0.0741663 0.0733032 0.377608
1387.88 0.0737824 0.0731721 0.264896
1387.98 0.0714381 0.0730432 -0.69728
1388.08 0.0727912 0.0729164 -0.055099
1388.18 0.0747491 0.0727917 0.845751
1388.28 0.0765154 0.072669 1.64508
1388.38 0.0718963 0.0725483 -0.281235
1388.48 0.0714995 0.0724295 -0.405958
1388.58 0.0681743 0.0723127 -1.8724
1388.68 0.073719 0.0721978 0.669181
1388.78 0.0688699 0.0720847 -1.4371
1388.88 0.0741887 0.0719735 0.951968
1388.98 0.0735165 0.0718641 0.724383
1389.08 0.070224 0.0717565 -0.680067
1389.18 0.0716618 0.0716507 0.00497647
1389.28 0.0715766 0.0715465 0.0130129
1389.38 0.0702002 0.0714441 -0.557312
1389.48 0.0689921 0.0713433 -1.05232
1389.58 0.0685752 0.0712442 -1.18831
1389.68 0.0720216 0.0711466 0.377407
1389.78 0.0701363 0.0710507 -0.402039
1389.88 0.0714082 0.0709563 0.200995
1389.98 0.0688195 0.0708635 -0.923284
1390.08 0.0723618 0.0707721 0.704606
1390.18 0.0742689 0.0706823 1.5509
1390.28 0.0698875 0.0705939 -0.316595
1390.38 0.0710985 0.070507 0.261079
1390.48 0.0705376 0.0704214 0.0516305
1390.58 0.0714811 0.0703373 0.508882
1390.68 0.068408 0.0702545 -0.834251
1390.78 0.0687356 0.0701731 -0.645683
1390.88 0.0680075 0.070093 -0.931803
1390.98 0.0706092 0.0700142 0.26485
1391.08 0.0701802 0.0699367 0.108189
1391.18 0.069545 0.0698605 -0.137469
1391.28 0.072129 0.0697855 1.02507
1391.38 0.0664296 0.0697117 -1.49543
1391.48 0.0725371 0.0696391 1.28649
1391.58 0.0722534 0.0695677 1.18749
1391.68 0.0648954 0.0694974 -2.12105
1391.78 0.06909 0.0694283 -0.153411
1391.88 0.0692446 0.0693603 -0.0518953
1391.98 0.0662539 0.0692935 -1.39619
1392.08 0.0680777 0.0692277 -0.510439
1392.18 0.0703623 0.069163 0.535035
1392.28 0.0683346 0.0690993 -0.339667
1392.38 0.0684267 0.0690367 -0.27775
1392.48 0.0672855 0.0689751 -0.775934
1392.58 0.0684475 0.0689145 -0.210542
1392.68 0.0696251 0.0688549 0.34302
1392.78 0.0706314 0.0687962 0.803166
1392.88 0.0689844 0.0687385 0.110573
1392.98 0.0713539 0.0686818 1.17486
1393.08 0.0737667 0.068626 2.21781
1393.18 0.0696085 0.068571 0.465292
1393.28 0.0704757 0.068517 0.867947
1393.38 0.0689173 0.0684639 0.203539
1393.48 0.0695954 0.0684116 0.531934
1393.58 0.0699291 0.0683602 0.703707
1393.68 0.0676985 0.0683096 -0.27161
1393.78 0.066187 0.0682598 -0.951881
1393.88 0.0701794 0.0682108 0.871553
1393.98 0.0692393 0.0681627 0.482053
1394.08 0.0656742 0.0681153 -1.12704
1394.18 0.0686233 0.0680687 0.250559
1394.28 0.0684944 0.0680228 0.212586
1394.38 0.0710751 0.0679777 1.38159
1394.48 0.0681783 0.0679333 0.111346
1394.58 0.0648792 0.0678897 -1.36113
1394.68 0.0671563 0.0678468 -0.310248
1394.78 0.0666156 0.0678045 -0.54356
1394.88 0.0686784 0.067763 0.413236
1394.98 0.0669823 0.0677221 -0.335753
1395.08 0.0662343 0.0676819 -0.665225
1395.18 0.0692759 0.0676423 0.733048
1395.28 0.0675264 0.0676034 -0.0348158
1395.38 0.0718509 0.0675651 1.88874
1395.48 0.0661802 0.0675275 -0.610182
1395.58 0.0687886 0.0674904 0.573587
1395.68 0.0681164 0.067454 0.30227
1395.78 0.0689885 0.0674181 0.706857
1395.88 0.0706783 0.0673829 1.45059
1395.98 0.069283 0.0673482 0.871053
1396.08 0.0679121 0.0673141 0.270354
1396.18 0.0652849 0.0672805 -0.910646
