# Data from DA_121108_E1.h5 stim 4
# Ratiometric estimator mono-exponential fit
# Fitted model Ca = baseline+delta*exp(-(t-t0)/tau)
# nobs = 177
# number of degrees of freedom = 174
# baseline length = 7
# fit started from point 30
# estimated baseline 0.0757214 and standard error 0.000316306
# estimated delta 0.0229617 and standard error 0.000745726
# estimated tau 7.37169 and standard error 0.500271
# residual sum of squares: 259.686
# RSS per degree of freedom: 1.49245
# Probability of observing a larger of equal RSS per DOF under the null hypothesis: 2.71725e-05
# WARNING: THE FIT IS NOT GOOD!

# rss per degree of freedom: 1.49245

# Time    Ca  Prediction  Residual
1996.89 0.0792121 0.0757214 1.64235
1997.09 0.0822409 0.0757214 2.99316
1997.29 0.0877598 0.0757214 5.36014
1997.49 0.0809012 0.0757214 2.38643
1997.69 0.0823801 0.0757214 3.07053
1997.89 0.0824655 0.0757214 3.10159
1998.09 0.0799955 0.0757214 2.00755

2002.89 0.0965574 0.0986831 -0.894071
2003.09 0.0973229 0.0980685 -0.310878
2003.29 0.0977243 0.0974704 0.106712
2003.49 0.100822 0.0968882 1.60791
2003.69 0.094988 0.0963217 -0.558332
2003.89 0.0952853 0.0957703 -0.207789
2004.09 0.0910534 0.0952336 -1.80212
2004.29 0.0923676 0.0947114 -1.01928
2004.49 0.0945529 0.0942031 0.149886
2004.69 0.0947655 0.0937084 0.446818
2004.89 0.0949489 0.093227 0.731848
2005.09 0.0938385 0.0927584 0.464113
2005.29 0.0898149 0.0923024 -1.08056
2005.49 0.0958972 0.0918586 1.71014
2005.69 0.0923804 0.0914267 0.410558
2005.89 0.0912602 0.0910063 0.11004
2006.09 0.0908498 0.0905972 0.109534
2006.29 0.0882959 0.090199 -0.853655
2006.49 0.0926101 0.0898115 1.21657
2006.69 0.0876063 0.0894344 -0.818949
2006.89 0.0895138 0.0890673 0.196818
2007.09 0.0882529 0.0887101 -0.206528
2007.29 0.0899384 0.0883625 0.693206
2007.49 0.0847161 0.0880241 -1.5219
2007.69 0.0863455 0.0876948 -0.599852
2007.89 0.0880563 0.0873743 0.304983
2008.09 0.0870332 0.0870624 -0.0129063
2008.29 0.0842465 0.0867589 -1.14753
2008.49 0.0865456 0.0864634 0.0372444
2008.69 0.0885132 0.0861759 1.02859
2008.89 0.0861226 0.0858961 0.100344
2009.09 0.0898681 0.0856238 1.87803
2009.29 0.0867269 0.0853587 0.609145
2009.49 0.0840177 0.0851008 -0.492478
2009.69 0.0829878 0.0848497 -0.864514
2009.89 0.0820881 0.0846054 -1.15802
2010.09 0.0845478 0.0843676 0.0817967
2010.29 0.0868607 0.0841362 1.20821
2010.49 0.081745 0.0839109 -1.006
2010.69 0.0822947 0.0836917 -0.648059
2010.89 0.0837263 0.0834784 0.112675
2011.09 0.0839609 0.0832708 0.311975
2011.29 0.0821594 0.0830687 -0.41522
2011.49 0.0805375 0.0828721 -1.07828
2011.69 0.0836806 0.0826807 0.451253
2011.89 0.0848553 0.0824944 1.08546
2012.09 0.0839486 0.0823131 0.749511
2012.29 0.0808842 0.0821367 -0.58394
2012.49 0.0812855 0.081965 -0.317814
2012.69 0.0894666 0.0817978 3.37321
2012.89 0.0791893 0.0816352 -1.14547
2013.09 0.0842688 0.0814769 1.26574
2013.29 0.08554 0.0813229 1.90118
2013.49 0.0799371 0.0811729 -0.579795
2013.69 0.0838154 0.081027 1.29446
2013.89 0.0777679 0.080885 -1.46281
2014.09 0.0840494 0.0807468 1.50968
2014.29 0.0787305 0.0806123 -0.886597
2014.49 0.0810103 0.0804814 0.245331
2014.69 0.0826365 0.080354 1.04917
2014.89 0.0787123 0.08023 -0.716058
2015.09 0.0823189 0.0801093 1.02432
2015.29 0.0852894 0.0799919 2.40623
2015.49 0.0791435 0.0798775 -0.345276
2015.69 0.0819861 0.0797663 1.0474
2015.89 0.0803265 0.079658 0.310871
2016.09 0.0797318 0.0795527 0.084915
2016.29 0.0810439 0.0794501 0.735383
2016.49 0.0797443 0.0793503 0.185345
2016.69 0.0822073 0.0792532 1.36371
2016.89 0.0806869 0.0791587 0.71479
2017.09 0.0797746 0.0790667 0.338032
2017.29 0.0764906 0.0789771 -1.19772
2017.49 0.0788712 0.07889 -0.00891734
2017.69 0.0781344 0.0788052 -0.317231
2017.89 0.0777919 0.0787226 -0.443074
2018.09 0.0806548 0.0786423 0.934873
2018.29 0.0805784 0.0785641 0.934137
2018.49 0.0786263 0.078488 0.0655556
2018.69 0.081001 0.078414 1.19371
2018.89 0.0800501 0.0783419 0.800901
2019.09 0.0798904 0.0782718 0.764934
2019.29 0.0753233 0.0782035 -1.36313
2019.49 0.0779828 0.0781371 -0.0733902
2019.69 0.0769634 0.0780724 -0.529593
2019.89 0.077839 0.0780095 -0.0816572
2020.09 0.0800098 0.0779482 0.964352
2020.29 0.0786975 0.0778886 0.378626
2020.49 0.075166 0.0778306 -1.30003
2020.69 0.0746065 0.0777742 -1.53943
2020.89 0.078646 0.0777192 0.43658
2021.09 0.0768414 0.0776658 -0.389036
2021.29 0.080975 0.0776137 1.55865
2021.49 0.0783556 0.0775631 0.377314
2021.69 0.0713486 0.0775138 -3.08932
2021.89 0.074364 0.0774658 -1.49985
2022.09 0.0782963 0.0774191 0.411618
2022.29 0.0743959 0.0773737 -1.4514
2022.49 0.0779488 0.0773294 0.294702
2022.69 0.0788312 0.0772864 0.742958
2022.89 0.0759335 0.0772445 -0.621325
2023.09 0.0742613 0.0772037 -1.45567
2023.29 0.0778526 0.0771641 0.326148
2023.49 0.0731802 0.0771255 -1.90342
2023.69 0.0762262 0.0770879 -0.406733
2023.89 0.0738257 0.0770513 -1.56356
2024.09 0.0793592 0.0770157 1.11721
2024.29 0.0754597 0.0769811 -0.74856
2024.49 0.0766285 0.0769473 -0.155102
2024.69 0.0739622 0.0769145 -1.4456
2024.89 0.0737534 0.0768826 -1.53835
2025.09 0.081404 0.0768515 2.12953
2025.29 0.0740831 0.0768213 -1.34418
2025.49 0.0743103 0.0767918 -1.22785
2025.69 0.077054 0.0767632 0.140736
2025.89 0.0765972 0.0767353 -0.0667396
2026.09 0.0774682 0.0767082 0.360668
2026.29 0.0720507 0.0766817 -2.31187
2026.49 0.0786702 0.076656 0.948161
2026.69 0.0741822 0.076631 -1.16577
2026.89 0.0787513 0.0766067 1.01385
2027.09 0.0739501 0.076583 -1.29505
2027.29 0.0747029 0.0765599 -0.915944
2027.49 0.0769321 0.0765375 0.190586
2027.69 0.0748979 0.0765156 -0.788558
2027.89 0.0740611 0.0764944 -1.21155
2028.09 0.0772395 0.0764737 0.366085
2028.29 0.0758664 0.0764536 -0.285777
2028.49 0.0786177 0.076434 1.01987
2028.69 0.076922 0.0764149 0.24376
2028.89 0.0772664 0.0763963 0.411214
2029.09 0.0781958 0.0763783 0.878303
2029.29 0.0759591 0.0763607 -0.194963
2029.49 0.0752775 0.0763436 -0.519272
2029.69 0.0709912 0.0763269 -2.67833
2029.89 0.0756532 0.0763107 -0.31418
2030.09 0.0755804 0.0762949 -0.346215
2030.29 0.0751934 0.0762796 -0.52565
2030.49 0.075898 0.0762646 -0.177743
2030.69 0.0710204 0.0762501 -2.59267
2030.89 0.0760383 0.076236 -0.0955821
2031.09 0.076274 0.0762222 0.0249631
2031.29 0.0803071 0.0762088 1.9331
2031.49 0.0772917 0.0761957 0.528139
2031.69 0.0722846 0.076183 -1.89737
2031.89 0.0751979 0.0761707 -0.473195
2032.09 0.0739584 0.0761587 -1.07125
2032.29 0.0776793 0.076147 0.730108
2032.49 0.0694887 0.0761356 -3.34985
2032.69 0.0736931 0.0761245 -1.19699
2032.89 0.0745271 0.0761137 -0.772301
2033.09 0.0734739 0.0761032 -1.29691
2033.29 0.0765934 0.076093 0.241135
2033.49 0.0764303 0.076083 0.165376
2033.69 0.0772327 0.0760734 0.555145
2033.89 0.074919 0.0760639 -0.558416
2034.09 0.0765384 0.0760548 0.232676
2034.29 0.0741398 0.0760458 -0.939034
2034.49 0.0769035 0.0760372 0.418944
2034.69 0.0784319 0.0760287 1.15782
2034.89 0.0776633 0.0760205 0.781481
2035.09 0.076034 0.0760125 0.0103858
2035.29 0.0769578 0.0760047 0.458567
2035.49 0.0773086 0.0759971 0.617228
2035.69 0.0771555 0.0759897 0.561787
2035.89 0.0758434 0.0759825 -0.067384
2036.09 0.072918 0.0759756 -1.50089
2036.29 0.0741612 0.0759688 -0.887781
2036.49 0.0740135 0.0759621 -0.954856
2036.69 0.0755933 0.0759557 -0.174652
