# Data from DA_121108_E1.h5 stim 1
# Ratiometric estimator mono-exponential fit
# Fitted model Ca = baseline+delta*exp(-(t-t0)/tau)
# nobs = 183
# number of degrees of freedom = 180
# baseline length = 7
# fit started from point 24
# estimated baseline 0.0548853 and standard error 0.000402974
# estimated delta 0.0332599 and standard error 0.00217027
# estimated tau 1.99378 and standard error 0.199313
# residual sum of squares: 168.541
# RSS per degree of freedom: 0.936341
# Probability of observing a larger of equal RSS per DOF under the null hypothesis: 0.719683

# rss per degree of freedom: 0.936341

# Time    Ca  Prediction  Residual
615.015 0.0655326 0.0548853 2.36588
615.115 0.0482336 0.0548853 -1.61835
615.215 0.051466 0.0548853 -0.813439
615.315 0.0552691 0.0548853 0.0883736
615.415 0.0523764 0.0548853 -0.593599
615.515 0.0575588 0.0548853 0.620091
615.615 0.0612901 0.0548853 1.46934

617.415 0.0880955 0.0881452 -0.00932678
617.515 0.0953871 0.0865182 1.58718
617.615 0.0894852 0.0849708 0.827666
617.715 0.0884766 0.083499 0.937903
617.815 0.0830664 0.0820993 0.18797
617.915 0.0729642 0.080768 -1.6216
618.015 0.0802064 0.0795018 0.138683
618.115 0.0751494 0.0782976 -0.642374
618.215 0.0727319 0.0771523 -0.929696
618.315 0.0775205 0.0760631 0.298788
618.415 0.0748881 0.0750271 -0.0284579
618.515 0.0738207 0.0740418 -0.0469779
618.615 0.0784798 0.0731046 1.08038
618.715 0.0730985 0.0722134 0.185194
618.815 0.0673894 0.0713657 -0.862598
618.915 0.0696 0.0705595 -0.203394
619.015 0.0699671 0.0697927 0.0370715
619.115 0.0616455 0.0690635 -1.67238
619.215 0.0659645 0.0683699 -0.521197
619.315 0.0693674 0.0677103 0.355905
619.415 0.0681933 0.0670829 0.241969
619.515 0.0635944 0.0664862 -0.635754
619.615 0.0684622 0.0659187 0.537545
619.715 0.0623714 0.065379 -0.690478
619.815 0.0609214 0.0648656 -0.902954
619.915 0.0604811 0.0643774 -0.887962
620.015 0.0627959 0.063913 -0.250823
620.115 0.0640287 0.0634714 0.126541
620.215 0.054459 0.0630514 -2.05546
620.315 0.0653777 0.0626519 0.620586
620.415 0.0605628 0.062272 -0.38446
620.515 0.0650109 0.0619106 0.684141
620.615 0.0647061 0.061567 0.702814
620.715 0.0624947 0.0612401 0.284506
620.815 0.0640272 0.0609292 0.689223
620.915 0.0733766 0.0606336 2.64891
621.015 0.068531 0.0603524 1.72875
621.115 0.055052 0.0600849 -1.19695
621.215 0.0574164 0.0598306 -0.559798
621.315 0.0604599 0.0595887 0.199142
621.415 0.0570102 0.0593586 -0.547182
621.515 0.0590358 0.0591398 -0.0239362
621.615 0.0653702 0.0589316 1.4592
621.715 0.0565334 0.0587337 -0.513375
621.815 0.0542964 0.0585454 -1.02774
621.915 0.0579946 0.0583664 -0.0882607
622.015 0.0583956 0.0581961 0.046579
622.115 0.0646859 0.0580341 1.50496
622.215 0.0581527 0.0578801 0.0632296
622.315 0.0612765 0.0577336 0.814211
622.415 0.0570083 0.0575943 -0.136598
622.515 0.0593438 0.0574618 0.443543
622.615 0.048057 0.0573357 -2.34051
622.715 0.0608935 0.0572158 0.851976
622.815 0.0502544 0.0571018 -1.69462
622.915 0.0600178 0.0569934 0.697119
623.015 0.0580348 0.0568903 0.263326
623.115 0.0611501 0.0567922 0.997356
623.215 0.0565186 0.0566989 -0.0423708
623.315 0.0537803 0.0566102 -0.690345
623.415 0.0586405 0.0565258 0.498898
623.515 0.0637512 0.0564456 1.66201
623.615 0.0519421 0.0563693 -1.077
623.715 0.0660869 0.0562967 2.2267
623.815 0.0551516 0.0562276 -0.256594
623.915 0.0529546 0.056162 -0.778801
624.015 0.0561789 0.0560995 0.0192218
624.115 0.0567043 0.0560401 0.159783
624.215 0.0577864 0.0559836 0.42561
624.315 0.0603577 0.0559299 1.02133
624.415 0.0672162 0.0558788 2.53778
624.515 0.0611122 0.0558302 1.21915
624.615 0.0546254 0.055784 -0.285499
624.715 0.0543796 0.05574 -0.328175
624.815 0.0564467 0.0556982 0.180018
624.915 0.0588932 0.0556584 0.769141
625.015 0.0565442 0.0556206 0.222801
625.115 0.0567048 0.0555846 0.270884
625.215 0.0533767 0.0555504 -0.538092
625.315 0.0575514 0.0555179 0.491412
625.415 0.0612352 0.055487 1.32093
625.515 0.0585128 0.0554575 0.724876
625.615 0.0655803 0.0554295 2.31733
625.715 0.05717 0.0554029 0.421918
625.815 0.0578903 0.0553776 0.596979
625.915 0.0516303 0.0553535 -0.91439
626.015 0.0544083 0.0553306 -0.218106
626.115 0.055594 0.0553088 0.0688729
626.215 0.0520575 0.0552881 -0.791897
626.315 0.056129 0.0552684 0.209068
626.415 0.049658 0.0552497 -1.41145
626.515 0.0557171 0.0552318 0.120471
626.615 0.055241 0.0552149 0.00621634
626.715 0.0548373 0.0551988 -0.0883676
626.815 0.0507872 0.0551834 -1.10137
626.915 0.0552249 0.0551689 0.013538
627.015 0.0622308 0.055155 1.65249
627.115 0.0608228 0.0551418 1.30723
627.215 0.0537272 0.0551292 -0.342231
627.315 0.055108 0.0551173 -0.00227931
627.415 0.0530463 0.055106 -0.515442
627.515 0.0605361 0.0550952 1.27544
627.615 0.0570528 0.0550849 0.470694
627.715 0.0490257 0.0550751 -1.54981
627.815 0.0537888 0.0550659 -0.316157
627.915 0.0502309 0.055057 -1.2313
628.015 0.0556686 0.0550486 0.147644
628.115 0.0631278 0.0550406 1.91023
628.215 0.0531339 0.055033 -0.46174
628.315 0.051254 0.0550258 -0.936154
628.415 0.0526078 0.0550189 -0.59455
628.515 0.0530107 0.0550124 -0.496506
628.615 0.0521819 0.0550062 -0.713034
628.715 0.0524899 0.0550003 -0.632709
628.815 0.0556531 0.0549947 0.162802
628.915 0.0538097 0.0549893 -0.294027
629.015 0.0594203 0.0549842 1.04587
629.115 0.0582687 0.0549794 0.796935
629.215 0.0517205 0.0549748 -0.821648
629.315 0.0521064 0.0549704 -0.721127
629.415 0.0592671 0.0549662 1.04424
629.515 0.0552626 0.0549623 0.0749596
629.615 0.0515208 0.0549585 -0.864607
629.715 0.0540933 0.0549549 -0.213321
629.815 0.0597031 0.0549515 1.15184
629.915 0.0559618 0.0549483 0.242516
630.015 0.0532723 0.0549452 -0.421223
630.115 0.0586401 0.0549423 0.906451
630.215 0.0516537 0.0549395 -0.836122
630.315 0.0623644 0.0549369 1.74657
630.415 0.0560802 0.0549343 0.283549
630.515 0.0555774 0.0549319 0.163041
630.615 0.0562283 0.0549297 0.320363
630.715 0.0591683 0.0549275 1.03749
630.815 0.054957 0.0549254 0.00769958
630.915 0.049896 0.0549235 -1.27771
631.015 0.0541223 0.0549216 -0.196138
631.115 0.0468996 0.0549198 -2.10197
631.215 0.0597036 0.0549181 1.1543
631.315 0.0611092 0.0549165 1.46451
631.415 0.0500032 0.054915 -1.25468
631.515 0.0525058 0.0549136 -0.599061
631.615 0.0605093 0.0549122 1.32327
631.715 0.060011 0.0549109 1.22996
631.815 0.059501 0.0549096 1.11536
631.915 0.0522037 0.0549084 -0.684422
632.015 0.0490917 0.0549073 -1.49874
632.115 0.0548084 0.0549062 -0.0244429
632.215 0.0503374 0.0549052 -1.17688
632.315 0.0566554 0.0549042 0.430294
632.415 0.0538502 0.0549033 -0.263004
632.515 0.0487504 0.0549024 -1.58285
632.615 0.0555897 0.0549016 0.17147
632.715 0.0530594 0.0549008 -0.46399
632.815 0.0609987 0.0549 1.46528
632.915 0.0543848 0.0548993 -0.129714
633.015 0.0540417 0.0548986 -0.216035
633.115 0.0540541 0.054898 -0.215237
633.215 0.0548511 0.0548974 -0.0116438
633.315 0.0528375 0.0548968 -0.521929
633.415 0.0546736 0.0548962 -0.0564049
633.515 0.0516151 0.0548957 -0.838583
633.615 0.0521766 0.0548952 -0.690363
633.715 0.0491434 0.0548947 -1.51372
633.815 0.0582801 0.0548942 0.826939
633.915 0.049077 0.0548938 -1.53968
634.015 0.0541676 0.0548934 -0.182866
634.115 0.0464713 0.054893 -2.23886
634.215 0.0513718 0.0548926 -0.905927
634.315 0.050325 0.0548923 -1.1765
634.415 0.057911 0.0548919 0.741899
634.515 0.0555131 0.0548916 0.155164
634.615 0.0551448 0.0548913 0.0636496
634.715 0.0595457 0.054891 1.14434
634.815 0.0566105 0.0548907 0.43171
634.915 0.0529405 0.0548905 -0.493273
