# Data from DA_121108_E1.h5 stim 2
# Ratiometric estimator mono-exponential fit
# Fitted model Ca = baseline+delta*exp(-(t-t0)/tau)
# nobs = 174
# number of degrees of freedom = 171
# baseline length = 7
# fit started from point 33
# estimated baseline 0.0523869 and standard error 0.000314945
# estimated delta 0.0274604 and standard error 0.00101321
# estimated tau 2.92963 and standard error 0.197633
# residual sum of squares: 179.913
# RSS per degree of freedom: 1.05212
# Probability of observing a larger of equal RSS per DOF under the null hypothesis: 0.305118

# rss per degree of freedom: 1.05212

# Time    Ca  Prediction  Residual
935.657 0.0527634 0.0523869 0.152261
935.757 0.05229 0.0523869 -0.0392958
935.857 0.0523654 0.0523869 -0.00866471
935.957 0.0538196 0.0523869 0.567306
936.057 0.0527523 0.0523869 0.148175
936.157 0.0516811 0.0523869 -0.287891
936.257 0.0525353 0.0523869 0.0606204

938.957 0.0743226 0.0798473 -1.92197
939.057 0.0838794 0.0789258 1.60682
939.157 0.0779153 0.0780352 -0.0409227
939.257 0.0794824 0.0771745 0.778984
939.357 0.0758984 0.0763427 -0.154824
939.457 0.0739257 0.0755388 -0.561966
939.557 0.0785112 0.0747618 1.27214
939.657 0.0795037 0.074011 1.85539
939.757 0.0686522 0.0732853 -1.68735
939.857 0.0707776 0.072584 -0.64053
939.957 0.0743096 0.0719062 0.853148
940.057 0.0687016 0.0712512 -0.919057
940.157 0.0677197 0.0706181 -1.05846
940.257 0.076227 0.0700063 2.13398
940.357 0.0667167 0.0694151 -1.00807
940.457 0.0682431 0.0688436 -0.222193
940.557 0.0668281 0.0682914 -0.546022
940.657 0.0688063 0.0677576 0.381534
940.757 0.0679735 0.0672418 0.271831
940.857 0.0664404 0.0667433 -0.112481
940.957 0.0625805 0.0662616 -1.41145
941.057 0.0636501 0.065796 -0.798021
941.157 0.0669647 0.065346 0.597257
941.257 0.064125 0.0649111 -0.292524
941.357 0.0624447 0.0644908 -0.7795
941.457 0.0656157 0.0640846 0.570372
941.557 0.067452 0.0636921 1.37688
941.657 0.0677612 0.0633127 1.60211
941.757 0.0644951 0.062946 0.581534
941.857 0.0618287 0.0625917 -0.290873
941.957 0.0598848 0.0622492 -0.915945
942.057 0.0614178 0.0619183 -0.191963
942.157 0.0632176 0.0615984 0.601775
942.257 0.0619712 0.0612893 0.261275
942.357 0.0625154 0.0609905 0.580385
942.457 0.0561172 0.0607018 -1.81241
942.557 0.0633095 0.0604228 1.10206
942.657 0.0594285 0.0601531 -0.279386
942.757 0.059609 0.0598925 -0.108774
942.857 0.0607617 0.0596406 0.426413
942.957 0.0568906 0.0593972 -0.97458
943.057 0.055456 0.059162 -1.46353
943.157 0.062773 0.0589346 1.47414
943.257 0.0555934 0.0587149 -1.25453
943.357 0.0585526 0.0585025 0.0195076
943.457 0.0620745 0.0582973 1.45785
943.557 0.0605541 0.0580989 0.947606
943.657 0.0593188 0.0579073 0.546221
943.757 0.0585449 0.057722 0.319315
943.857 0.0602895 0.057543 1.04793
943.957 0.0588815 0.0573699 0.592134
944.057 0.0581953 0.0572027 0.390355
944.157 0.0593721 0.0570411 0.900719
944.257 0.0545248 0.0568849 -0.952134
944.357 0.0596497 0.056734 1.13605
944.457 0.0547118 0.0565881 -0.74904
944.557 0.0589082 0.0564471 0.963671
944.657 0.0568666 0.0563109 0.219629
944.757 0.0527014 0.0561792 -1.4192
944.857 0.0537361 0.0560519 -0.930361
944.957 0.0569674 0.0559289 0.413504
945.057 0.0534824 0.0558101 -0.961641
945.157 0.0545927 0.0556952 -0.44071
945.257 0.0595217 0.0555842 1.54331
945.357 0.0556082 0.0554769 0.0523809
945.457 0.0529201 0.0553732 -1.00176
945.557 0.0530617 0.055273 -0.904792
945.657 0.0590079 0.0551761 1.50239
945.757 0.0530227 0.0550825 -0.849247
945.857 0.0542485 0.054992 -0.30177
945.957 0.0530041 0.0549046 -0.783719
946.057 0.0573048 0.0548201 0.973334
946.157 0.0570843 0.0547385 0.930516
946.257 0.0507386 0.0546596 -1.6193
946.357 0.0514386 0.0545833 -1.28573
946.457 0.0515378 0.0545096 -1.22787
946.557 0.0503986 0.0544383 -1.65889
946.657 0.0575399 0.0543695 1.246
946.757 0.0525066 0.054303 -0.737985
946.857 0.0552627 0.0542387 0.402018
946.957 0.0511065 0.0541765 -1.26035
947.057 0.0598416 0.0541165 2.23414
947.157 0.0582867 0.0540584 1.67628
947.257 0.0555375 0.0540023 0.612061
947.357 0.0537105 0.0539481 -0.0953595
947.457 0.0541807 0.0538957 0.116
947.557 0.054551 0.0538451 0.283582
947.657 0.0588743 0.0537962 2.01575
947.757 0.0554029 0.0537489 0.657222
947.857 0.0505634 0.0537032 -1.28944
947.957 0.0554259 0.053659 0.714563
948.057 0.0568529 0.0536163 1.29879
948.157 0.0510236 0.053575 -1.04798
948.257 0.0514185 0.0535352 -0.858785
948.357 0.0533521 0.0534966 -0.0588951
948.457 0.0515773 0.0534594 -0.769918
948.557 0.0515854 0.0534234 -0.765872
948.657 0.0531985 0.0533886 -0.0758182
948.757 0.0573685 0.053355 1.61162
948.857 0.0512577 0.0533225 -0.845303
948.957 0.0523885 0.0532911 -0.365378
949.057 0.0523224 0.0532608 -0.37674
949.157 0.0538402 0.0532314 0.247396
949.257 0.051515 0.0532031 -0.70258
949.357 0.0530106 0.0531757 -0.0680585
949.457 0.0478977 0.0531492 -2.23085
949.557 0.0552558 0.0531236 0.866814
949.657 0.0515099 0.0530989 -0.654549
949.757 0.0491203 0.053075 -1.66655
949.857 0.0522467 0.0530519 -0.328856
949.957 0.0543572 0.0530296 0.544409
950.057 0.0511045 0.053008 -0.788343
950.157 0.0528491 0.0529872 -0.0570374
950.257 0.0566676 0.0529671 1.46971
950.357 0.0563143 0.0529476 1.35896
950.457 0.0559453 0.0529288 1.20508
950.557 0.051477 0.0529106 -0.583405
950.657 0.0504769 0.052893 -0.998343
950.757 0.0558874 0.052876 1.21229
950.857 0.0525543 0.0528596 -0.126133
950.957 0.049847 0.0528437 -1.2574
951.057 0.0547936 0.0528284 0.793565
951.157 0.0536415 0.0528136 0.343856
951.257 0.0554238 0.0527993 1.06499
951.357 0.0509793 0.0527854 -0.757946
951.457 0.052319 0.0527721 -0.183217
951.557 0.0488865 0.0527591 -1.62582
951.657 0.0559561 0.0527466 1.27891
951.757 0.0464229 0.0527346 -2.69928
951.857 0.048656 0.0527229 -1.72862
951.957 0.0552847 0.0527116 1.03425
952.057 0.0552248 0.0527007 1.01463
952.157 0.0540103 0.0526902 0.533101
952.257 0.0533711 0.05268 0.284458
952.357 0.0571003 0.0526702 1.77402
952.457 0.0486488 0.0526607 -1.68821
952.557 0.0551607 0.0526515 1.01533
952.657 0.0491449 0.0526426 -1.46402
952.757 0.0502402 0.052634 -1.01027
952.857 0.0534318 0.0526257 0.330106
952.957 0.0525311 0.0526177 -0.0359471
953.057 0.0524636 0.05261 -0.0595312
953.157 0.052022 0.0526025 -0.241091
953.257 0.0541002 0.0525952 0.610269
953.357 0.0508161 0.0525882 -0.738449
953.457 0.0534723 0.0525815 0.363827
953.557 0.0496366 0.052575 -1.23518
953.657 0.0530182 0.0525686 0.184921
953.757 0.0544844 0.0525625 0.786485
953.857 0.0506079 0.0525566 -0.809629
953.957 0.051301 0.0525509 -0.51047
954.057 0.0524589 0.0525454 -0.0354023
954.157 0.0537559 0.0525401 0.496871
954.257 0.0506173 0.052535 -0.795808
954.357 0.0488834 0.05253 -1.54448
954.457 0.0513488 0.0525252 -0.4904
954.557 0.0577793 0.0525206 2.11661
954.657 0.0535968 0.0525161 0.43944
954.757 0.0515643 0.0525117 -0.39217
954.857 0.0540619 0.0525075 0.633644
954.957 0.0521913 0.0525035 -0.126717
955.057 0.0538418 0.0524996 0.547864
955.157 0.0586029 0.0524958 2.42975
955.257 0.052577 0.0524921 0.0344909
955.357 0.0547502 0.0524886 0.921301
955.457 0.0526459 0.0524852 0.0658575
955.557 0.057305 0.0524819 1.9095
