# Data from DA_130130_E4.h5 stim 4
# Ratiometric estimator mono-exponential fit
# Fitted model Ca = baseline+delta*exp(-(t-t0)/tau)
# nobs = 160
# number of degrees of freedom = 157
# baseline length = 7
# fit started from point 47
# estimated baseline 0.0345599 and standard error 0.000248771
# estimated delta 0.0198037 and standard error 0.000511037
# estimated tau 3.6884 and standard error 0.209818
# residual sum of squares: 140.912
# RSS per degree of freedom: 0.897531
# Probability of observing a larger of equal RSS per DOF under the null hypothesis: 0.816716

# rss per degree of freedom: 0.897531

# Time    Ca  Prediction  Residual
2510.01 0.0358872 0.0345599 0.928961
2510.11 0.0352481 0.0345599 0.480643
2510.21 0.0340566 0.0345599 -0.355132
2510.31 0.033007 0.0345599 -1.09659
2510.41 0.0349721 0.0345599 0.28971
2510.51 0.0350646 0.0345599 0.355926
2510.61 0.0338343 0.0345599 -0.519361

2514.71 0.0518176 0.0543637 -1.59136
2514.81 0.0547832 0.053834 0.574954
2514.91 0.053912 0.0533184 0.364107
2515.01 0.054034 0.0528167 0.735451
2515.11 0.0513866 0.0523283 -0.591782
2515.21 0.0489906 0.0518531 -1.81364
2515.31 0.0526294 0.0513905 0.769967
2515.41 0.052789 0.0509403 1.13077
2515.51 0.0500633 0.0505022 -0.275709
2515.61 0.0520123 0.0500758 1.19527
2515.71 0.0483326 0.0496608 -0.843518
2515.81 0.0490638 0.0492569 -0.123083
2515.91 0.0497674 0.0488637 0.563815
2516.01 0.0476961 0.0484812 -0.493495
2516.11 0.0458293 0.0481088 -1.48088
2516.21 0.0480272 0.0477464 0.17804
2516.31 0.0498877 0.0473937 1.56559
2516.41 0.0480462 0.0470504 0.636537
2516.51 0.0460305 0.0467163 -0.439976
2516.61 0.0455614 0.0463912 -0.537879
2516.71 0.0462933 0.0460747 0.140343
2516.81 0.0438474 0.0457667 -1.26975
2516.91 0.0457405 0.0454669 0.177628
2517.01 0.0449751 0.0451752 -0.129357
2517.11 0.0471845 0.0448913 1.45935
2517.21 0.043761 0.0446149 -0.555045
2517.31 0.044604 0.044346 0.167105
2517.41 0.0430395 0.0440842 -0.677277
2517.51 0.042505 0.0438295 -0.891299
2517.61 0.0439094 0.0435815 0.216688
2517.71 0.0419388 0.0433402 -0.935365
2517.81 0.0436752 0.0431054 0.379088
2517.91 0.0436925 0.0428768 0.533321
2518.01 0.045585 0.0426543 1.89374
2518.11 0.0440502 0.0424378 1.0455
2518.21 0.0425115 0.0422271 0.187029
2518.31 0.0425169 0.042022 0.329443
2518.41 0.0441303 0.0418225 1.52302
2518.51 0.0425887 0.0416282 0.630382
2518.61 0.0417551 0.0414391 0.211093
2518.71 0.0415464 0.0412551 0.194274
2518.81 0.0406568 0.041076 -0.281532
2518.91 0.041476 0.0409018 0.379884
2519.01 0.0413174 0.0407321 0.392983
2519.11 0.0412277 0.040567 0.449615
2519.21 0.0417672 0.0404064 0.906763
2519.31 0.042603 0.04025 1.5609
2519.41 0.0407379 0.0400978 0.436349
2519.51 0.0380829 0.0399497 -1.27346
2519.61 0.0394026 0.0398055 -0.277996
2519.71 0.0370133 0.0396652 -1.81177
2519.81 0.0388975 0.0395286 -0.431126
2519.91 0.0410935 0.0393957 1.14331
2520.01 0.0401433 0.0392664 0.595746
2520.11 0.0393718 0.0391405 0.159371
2520.21 0.0390081 0.039018 -0.00682861
2520.31 0.037505 0.0388987 -0.966208
2520.41 0.0385329 0.0387827 -0.168746
2520.51 0.0362003 0.0386697 -1.72167
2520.61 0.0376424 0.0385598 -0.630177
2520.71 0.0387215 0.0384528 0.183068
2520.81 0.0351023 0.0383487 -2.28364
2520.91 0.0380172 0.0382474 -0.156948
2521.01 0.0397924 0.0381487 1.10983
2521.11 0.0377593 0.0380527 -0.202885
2521.21 0.0372749 0.0379593 -0.461657
2521.31 0.041075 0.0378684 2.16448
2521.41 0.0363236 0.0377799 -1.00944
2521.51 0.0368366 0.0376938 -0.594961
2521.61 0.037573 0.0376099 -0.0254271
2521.71 0.0372581 0.0375284 -0.186314
2521.81 0.0369719 0.037449 -0.332538
2521.91 0.0366821 0.0373717 -0.479356
2522.01 0.0370174 0.0372965 -0.195269
2522.11 0.0377432 0.0372233 0.354128
2522.21 0.0374088 0.037152 0.176785
2522.31 0.0389126 0.0370827 1.25795
2522.41 0.0386318 0.0370152 1.11816
2522.51 0.0368454 0.0369496 -0.072037
2522.61 0.0375108 0.0368856 0.428303
2522.71 0.0351885 0.0368234 -1.15264
2522.81 0.0379464 0.0367629 0.817394
2522.91 0.0348879 0.036704 -1.30266
2523.01 0.0354825 0.0366466 -0.805801
2523.11 0.0363118 0.0365908 -0.196846
2523.21 0.038092 0.0365365 1.06579
2523.31 0.0369992 0.0364836 0.353953
2523.41 0.0353382 0.0364322 -0.75768
2523.51 0.0348208 0.0363821 -1.09244
2523.61 0.0366645 0.0363333 0.231647
2523.71 0.0341145 0.0362859 -1.55938
2523.81 0.0351722 0.0362397 -0.760005
2523.91 0.0388478 0.0361948 1.82071
2524.01 0.0343079 0.0361511 -1.30729
2524.11 0.0344136 0.0361085 -1.19949
2524.21 0.0370185 0.0360671 0.660025
2524.31 0.0350305 0.0360268 -0.706964
2524.41 0.0351071 0.0359876 -0.621421
2524.51 0.0330287 0.0359494 -2.09505
2524.61 0.0356579 0.0359122 -0.176939
2524.71 0.0348402 0.035876 -0.737428
2524.81 0.0359874 0.0358408 0.102098
2524.91 0.0336607 0.0358066 -1.49697
2525.01 0.0355753 0.0357732 -0.138605
2525.11 0.0382042 0.0357408 1.70172
2525.21 0.0365829 0.0357092 0.616914
2525.31 0.0359801 0.0356785 0.212264
2525.41 0.0356548 0.0356485 0.00441058
2525.51 0.0363764 0.0356194 0.543083
2525.61 0.0380113 0.0355911 1.67205
2525.71 0.0354231 0.0355635 -0.0997081
2525.81 0.0355229 0.0355367 -0.0094894
2525.91 0.0350284 0.0355105 -0.339074
2526.01 0.0340987 0.0354851 -0.971457
2526.11 0.0348706 0.0354604 -0.421557
2526.21 0.0361891 0.0354363 0.530659
2526.31 0.0341871 0.0354128 -0.869266
2526.41 0.0347805 0.03539 -0.429567
2526.51 0.034961 0.0353678 -0.282847
2526.61 0.0353321 0.0353462 -0.00994801
2526.71 0.0342421 0.0353252 -0.768546
2526.81 0.0366257 0.0353047 0.921998
2526.91 0.035033 0.0352848 -0.177688
2527.01 0.0347258 0.0352654 -0.379642
2527.11 0.0376094 0.0352465 1.64087
2527.21 0.0368232 0.0352282 1.11144
2527.31 0.0371092 0.0352103 1.32816
2527.41 0.0353211 0.0351929 0.0897268
2527.51 0.0324802 0.035176 -1.93862
2527.61 0.0359715 0.0351595 0.566935
2527.71 0.0378832 0.0351435 1.88383
2527.81 0.035 0.0351278 -0.089685
2527.91 0.0326699 0.0351127 -1.76094
2528.01 0.0365213 0.0350979 0.997667
2528.11 0.036916 0.0350835 1.28542
2528.21 0.0347456 0.0350695 -0.229521
2528.31 0.0367074 0.0350559 1.13232
2528.41 0.036939 0.0350426 1.3153
2528.51 0.0354472 0.0350297 0.294428
2528.61 0.0366319 0.0350171 1.12556
2528.71 0.0330254 0.0350049 -1.42034
2528.81 0.036174 0.034993 0.830992
2528.91 0.0340856 0.0349814 -0.643343
2529.01 0.0349057 0.0349701 -0.0452381
2529.11 0.0332156 0.0349592 -1.24378
2529.21 0.0379611 0.0349485 2.07522
2529.31 0.0352776 0.0349381 0.237622
2529.41 0.0356052 0.034928 0.473535
2529.51 0.034813 0.0349181 -0.0746544
2529.61 0.036038 0.0349085 0.786857
2529.71 0.0333037 0.0348992 -1.14801
2529.81 0.0324046 0.0348902 -1.77747
2529.91 0.0360703 0.0348813 0.827497
