# Data from DA_130130_E4.h5 stim 3
# Ratiometric estimator mono-exponential fit
# Fitted model Ca = baseline+delta*exp(-(t-t0)/tau)
# nobs = 169
# number of degrees of freedom = 166
# baseline length = 7
# fit started from point 38
# estimated baseline 0.0376601 and standard error 0.000234957
# estimated delta 0.029518 and standard error 0.000786931
# estimated tau 2.78147 and standard error 0.133035
# residual sum of squares: 185.426
# RSS per degree of freedom: 1.11702
# Probability of observing a larger of equal RSS per DOF under the null hypothesis: 0.143791

# rss per degree of freedom: 1.11702

# Time    Ca  Prediction  Residual
2130.01 0.0411544 0.0376601 1.88383
2130.11 0.0409869 0.0376601 1.77376
2130.21 0.0347845 0.0376601 -1.6112
2130.31 0.0368961 0.0376601 -0.41463
2130.41 0.0386804 0.0376601 0.553643
2130.51 0.0375426 0.0376601 -0.0646154
2130.61 0.0376221 0.0376601 -0.0211211

2133.81 0.0642949 0.0671782 -1.29654
2133.91 0.0670493 0.0661358 0.403458
2134.01 0.0650494 0.0651302 -0.036305
2134.11 0.0651457 0.0641601 0.441377
2134.21 0.0631444 0.0632243 -0.0359019
2134.31 0.0616546 0.0623216 -0.306574
2134.41 0.0622245 0.0614507 0.35209
2134.51 0.0616442 0.0606106 0.46951
2134.61 0.0607531 0.0598001 0.437509
2134.71 0.0598897 0.0590182 0.411643
2134.81 0.0585581 0.058264 0.139912
2134.91 0.0592047 0.0575364 0.784966
2135.01 0.0553703 0.0568345 -0.700785
2135.11 0.0581766 0.0561574 0.964937
2135.21 0.0558862 0.0555042 0.183283
2135.31 0.0546391 0.0548741 -0.114083
2135.41 0.0568731 0.0542662 1.23143
2135.51 0.0540211 0.0536798 0.16721
2135.61 0.051463 0.053114 -0.8145
2135.71 0.0496875 0.0525683 -1.4441
2135.81 0.0502779 0.0520419 -0.889636
2135.91 0.0525852 0.051534 0.512365
2136.01 0.0505318 0.051044 -0.249779
2136.11 0.0504518 0.0505714 -0.0597589
2136.21 0.0457731 0.0501155 -2.22025
2136.31 0.0491401 0.0496756 -0.270102
2136.41 0.0472725 0.0492513 -1.01533
2136.51 0.0455803 0.048842 -1.66238
2136.61 0.0486567 0.0484471 0.105268
2136.71 0.0496609 0.0480662 0.795157
2136.81 0.0483504 0.0476987 0.332658
2136.91 0.0460076 0.0473442 -0.689472
2137.01 0.0493645 0.0470022 1.18092
2137.11 0.0486774 0.0466723 1.00554
2137.21 0.0517249 0.0463541 2.63215
2137.31 0.0492171 0.0460471 1.5813
2137.41 0.0471555 0.0457509 0.709989
2137.51 0.0429614 0.0454652 -1.33072
2137.61 0.0451322 0.0451896 -0.0297885
2137.71 0.0450787 0.0449237 0.0800452
2137.81 0.0441794 0.0446672 -0.254591
2137.91 0.0486067 0.0444197 2.11858
2138.01 0.0424762 0.044181 -0.896077
2138.11 0.0432205 0.0439507 -0.378482
2138.21 0.0435479 0.0437286 -0.0945818
2138.31 0.0423971 0.0435143 -0.587705
2138.41 0.0445122 0.0433076 0.63163
2138.51 0.0402682 0.0431081 -1.51152
2138.61 0.046816 0.0429158 1.99209
2138.71 0.0439277 0.0427302 0.621999
2138.81 0.0392697 0.0425511 -1.75774
2138.91 0.0425831 0.0423784 0.107074
2139.01 0.039386 0.0422118 -1.52626
2139.11 0.0414549 0.042051 -0.319944
2139.21 0.0403341 0.041896 -0.825395
2139.31 0.0414629 0.0417464 -0.150471
2139.41 0.0429818 0.0416021 0.736498
2139.51 0.0407858 0.0414629 -0.360332
2139.61 0.0379752 0.0413286 -1.85665
2139.71 0.0422298 0.0411991 0.538201
2139.81 0.0398673 0.0410741 -0.649709
2139.91 0.0411901 0.0409535 0.126638
2140.01 0.0447741 0.0408372 2.04452
2140.11 0.041263 0.040725 0.292223
2140.21 0.0393419 0.0406168 -0.695543
2140.31 0.042012 0.0405124 0.804677
2140.41 0.0396835 0.0404117 -0.38916
2140.51 0.0372448 0.0403145 -1.67097
2140.61 0.0464868 0.0402208 3.21021
2140.71 0.0363038 0.0401303 -2.10688
2140.81 0.0391856 0.0400431 -0.465661
2140.91 0.0394453 0.039959 -0.273523
2141.01 0.0402459 0.0398778 0.197256
2141.11 0.0420429 0.0397995 1.18512
2141.21 0.0386598 0.0397239 -0.567195
2141.31 0.0407687 0.039651 0.598864
2141.41 0.0390365 0.0395807 -0.294472
2141.51 0.0400723 0.0395129 0.302153
2141.61 0.0419595 0.0394475 1.32366
2141.71 0.0396828 0.0393844 0.159299
2141.81 0.0403215 0.0393235 0.539556
2141.91 0.0405949 0.0392647 0.713365
2142.01 0.0387218 0.0392081 -0.263968
2142.11 0.0438413 0.0391534 2.43349
2142.21 0.0343019 0.0391007 -2.6718
2142.31 0.0400936 0.0390498 0.572056
2142.41 0.0399803 0.0390007 0.534477
2142.51 0.0399412 0.0389534 0.532315
2142.61 0.0376762 0.0389077 -0.666431
2142.71 0.0436877 0.0388637 2.54025
2142.81 0.0412062 0.0388212 1.26695
2142.91 0.0381744 0.0387802 -0.336414
2143.01 0.0411619 0.0387406 1.28086
2143.11 0.0409137 0.0387025 1.1968
2143.21 0.0375074 0.0386656 -0.635202
2143.31 0.0389677 0.0386301 0.181927
2143.41 0.0373471 0.0385959 -0.676608
2143.51 0.0372753 0.0385628 -0.7038
2143.61 0.0369584 0.038531 -0.871491
2143.71 0.0381044 0.0385002 -0.218731
2143.81 0.0389771 0.0384705 0.278045
2143.91 0.0371676 0.0384419 -0.699747
2144.01 0.038616 0.0384143 0.110784
2144.11 0.0370591 0.0383877 -0.733319
2144.21 0.0350506 0.038362 -1.85891
2144.31 0.0409991 0.0383372 1.45069
2144.41 0.0359137 0.0383133 -1.32929
2144.51 0.039379 0.0382902 0.592255
2144.61 0.0388073 0.038268 0.291706
2144.71 0.0391011 0.0382465 0.468762
2144.81 0.0380343 0.0382258 -0.104882
2144.91 0.038567 0.0382058 0.192983
2145.01 0.038504 0.0381866 0.173487
2145.11 0.0368791 0.038168 -0.71636
2145.21 0.036368 0.03815 -0.991111
2145.31 0.0386021 0.0381327 0.256135
2145.41 0.040168 0.0381161 1.10959
2145.51 0.0388775 0.0381 0.430927
2145.61 0.0350431 0.0380844 -1.70062
2145.71 0.0342119 0.0380694 -2.18104
2145.81 0.0359622 0.038055 -1.14482
2145.91 0.0384001 0.038041 0.195626
2146.01 0.0357563 0.0380276 -1.25429
2146.11 0.0367711 0.0380146 -0.694119
2146.21 0.0384579 0.0380021 0.251268
2146.31 0.0369923 0.03799 -0.55119
2146.41 0.0377675 0.0379784 -0.115132
2146.51 0.0383965 0.0379671 0.232899
2146.61 0.0399863 0.0379563 1.10087
2146.71 0.037062 0.0379458 -0.485751
2146.81 0.0380493 0.0379357 0.0625342
2146.91 0.038509 0.037926 0.317416
2147.01 0.0371546 0.0379166 -0.420197
2147.11 0.0354839 0.0379076 -1.34518
2147.21 0.0372831 0.0378988 -0.340483
2147.31 0.0391704 0.0378904 0.698953
2147.41 0.0376871 0.0378823 -0.106043
2147.51 0.0350541 0.0378744 -1.57371
2147.61 0.0392828 0.0378669 0.767922
2147.71 0.0388282 0.0378596 0.53124
2147.81 0.0391526 0.0378525 0.705473
2147.91 0.0406976 0.0378457 1.54511
2148.01 0.0374527 0.0378392 -0.212563
2148.11 0.0400514 0.0378328 1.2079
2148.21 0.0395514 0.0378267 0.936604
2148.31 0.0373037 0.0378209 -0.281253
2148.41 0.0387928 0.0378152 0.536063
2148.51 0.0374167 0.0378097 -0.216264
2148.61 0.0371012 0.0378044 -0.386231
2148.71 0.039886 0.0377993 1.14553
2148.81 0.0379316 0.0377944 0.0751457
2148.91 0.0403903 0.0377897 1.41672
2149.01 0.0350359 0.0377851 -1.5398
2149.11 0.0356533 0.0377807 -1.18298
2149.21 0.0444663 0.0377764 3.504
2149.31 0.0377396 0.0377723 -0.0177159
2149.41 0.0356964 0.0377684 -1.15768
2149.51 0.0364676 0.0377645 -0.725507
2149.61 0.0381852 0.0377609 0.231054
2149.71 0.0374427 0.0377573 -0.173639
2149.81 0.0363512 0.0377539 -0.77293
2149.91 0.0351262 0.0377506 -1.45278
