# Data from DA_130130_E4.h5 stim 2
# Ratiometric estimator mono-exponential fit
# Fitted model Ca = baseline+delta*exp(-(t-t0)/tau)
# nobs = 174
# number of degrees of freedom = 171
# baseline length = 7
# fit started from point 33
# estimated baseline 0.0398618 and standard error 0.000268954
# estimated delta 0.0344543 and standard error 0.00138133
# estimated tau 1.94367 and standard error 0.120784
# residual sum of squares: 165.824
# RSS per degree of freedom: 0.969734
# Probability of observing a larger of equal RSS per DOF under the null hypothesis: 0.597384

# rss per degree of freedom: 0.969734

# Time    Ca  Prediction  Residual
1750.02 0.037313 0.0398618 -0.979734
1750.12 0.0388128 0.0398618 -0.393677
1750.21 0.0381302 0.0398618 -0.661362
1750.31 0.0436012 0.0398618 1.37107
1750.41 0.0383032 0.0398618 -0.596708
1750.51 0.038703 0.0398618 -0.438904
1750.61 0.0384963 0.0398618 -0.526281

1753.31 0.0771177 0.0743161 0.812158
1753.41 0.0717271 0.0725883 -0.257809
1753.51 0.0705019 0.0709471 -0.13668
1753.61 0.0752107 0.0693882 1.7157
1753.71 0.0699732 0.0679075 0.633032
1753.81 0.0633676 0.0665011 -0.994601
1753.91 0.0642366 0.0651652 -0.293073
1754.01 0.0640574 0.0638963 0.0509334
1754.11 0.0619146 0.062691 -0.248756
1754.21 0.0596066 0.0615461 -0.631999
1754.31 0.060535 0.0604587 0.025103
1754.41 0.0579506 0.0594258 -0.489003
1754.51 0.0593648 0.0584447 0.297209
1754.61 0.0575131 0.0575128 9.7279e-05
1754.71 0.053469 0.0566277 -1.09536
1754.81 0.0567648 0.0557869 0.330907
1754.91 0.0487523 0.0549883 -2.21605
1755.01 0.0583978 0.0542297 1.36684
1755.11 0.0515291 0.0535092 -0.699676
1755.21 0.0522831 0.0528248 -0.186362
1755.31 0.0521899 0.0521747 0.00531034
1755.41 0.0486811 0.0515572 -1.00284
1755.51 0.0506998 0.0509707 -0.0947733
1755.61 0.0519235 0.0504137 0.523895
1755.71 0.0497197 0.0498845 -0.0584894
1755.81 0.0489021 0.0493819 -0.172807
1755.91 0.0479079 0.0489045 -0.346368
1756.01 0.0520579 0.048451 1.24972
1756.11 0.0482958 0.0480203 0.0988352
1756.21 0.0515889 0.0476111 1.39806
1756.31 0.048574 0.0472225 0.480027
1756.41 0.0449398 0.0468534 -0.70023
1756.51 0.0485289 0.0465028 0.71814
1756.61 0.0499585 0.0461697 1.35495
1756.71 0.0446521 0.0458534 -0.440589
1756.81 0.0472579 0.0455529 0.612773
1756.91 0.0453115 0.0452675 0.0161483
1757.01 0.0457575 0.0449964 0.274781
1757.11 0.0511874 0.044739 2.26488
1757.21 0.0461431 0.0444944 0.593068
1757.31 0.0428824 0.0442621 -0.50614
1757.41 0.0459773 0.0440414 0.6902
1757.51 0.0392473 0.0438318 -1.76889
1757.61 0.0411162 0.0436327 -0.941217
1757.71 0.0446927 0.0434436 0.455384
1757.81 0.0410044 0.043264 -0.856012
1757.91 0.0399603 0.0430934 -1.17563
1758.01 0.0400095 0.0429313 -1.10824
1758.11 0.0443527 0.0427774 0.580868
1758.21 0.0423142 0.0426312 -0.117325
1758.31 0.0380231 0.0424923 -1.69333
1758.41 0.0393595 0.0423604 -1.15016
1758.51 0.045122 0.0422351 1.05213
1758.61 0.0412226 0.0421161 -0.335816
1758.71 0.0405742 0.042003 -0.541949
1758.81 0.0425853 0.0418956 0.256068
1758.91 0.0397584 0.0417936 -0.765946
1759.01 0.040563 0.0416968 -0.424996
1759.11 0.0456296 0.0416047 1.48848
1759.21 0.0454703 0.0415173 1.44101
1759.31 0.0398722 0.0414343 -0.586228
1759.41 0.0467984 0.0413554 1.99706
1759.51 0.0416017 0.0412805 0.11935
1759.61 0.0428636 0.0412094 0.618828
1759.71 0.0380027 0.0411418 -1.19505
1759.81 0.0412236 0.0410776 0.0552387
1759.91 0.0419855 0.0410167 0.367201
1760.01 0.0410474 0.0409587 0.0335232
1760.11 0.0439985 0.0409037 1.15164
1760.21 0.045018 0.0408515 1.51981
1760.31 0.0394426 0.0408018 -0.522089
1760.41 0.0420376 0.0407547 0.476673
1760.51 0.0429387 0.0407099 0.825972
1760.61 0.0419005 0.0406674 0.454691
1760.71 0.0374261 0.040627 -1.23465
1760.81 0.0394438 0.0405886 -0.435234
1760.91 0.0405535 0.0405522 0.000500885
1761.01 0.04266 0.0405175 0.794655
1761.11 0.0380903 0.0404847 -0.923132
1761.21 0.0394769 0.0404534 -0.367524
1761.31 0.0392758 0.0404238 -0.43687
1761.41 0.0460527 0.0403956 2.06496
1761.51 0.0400197 0.0403688 -0.132711
1761.61 0.0359624 0.0403434 -1.71224
1761.71 0.0380854 0.0403192 -0.842504
1761.81 0.0416454 0.0402963 0.513461
1761.91 0.0456094 0.0402745 1.97084
1762.01 0.0380686 0.0402538 -0.84738
1762.11 0.037626 0.0402341 -0.98893
1762.21 0.0361663 0.0402155 -1.56706
1762.31 0.0423717 0.0401977 0.819188
1762.41 0.0443927 0.0401809 1.57543
1762.51 0.0455105 0.0401649 1.96932
1762.61 0.0448647 0.0401497 1.73017
1762.71 0.0386211 0.0401352 -0.578885
1762.81 0.0441674 0.0401215 1.47925
1762.91 0.0413969 0.0401085 0.498001
1763.01 0.0423378 0.0400961 0.82547
1763.11 0.039351 0.0400844 -0.283642
1763.21 0.0436017 0.0400732 1.30949
1763.31 0.0408699 0.0400626 0.299237
1763.41 0.0435508 0.0400525 1.27097
1763.51 0.0407742 0.040043 0.280063
1763.61 0.0429773 0.0400339 1.11027
1763.71 0.0380243 0.0400253 -0.779281
1763.81 0.0389488 0.0400171 -0.412852
1763.91 0.0412335 0.0400093 0.464722
1764.01 0.0395044 0.0400019 -0.190833
1764.11 0.0387271 0.0399949 -0.485258
1764.21 0.0347641 0.0399882 -2.07892
1764.31 0.0408791 0.0399818 0.347257
1764.41 0.0364993 0.0399758 -1.34973
1764.51 0.0412872 0.0399701 0.500373
1764.61 0.0385498 0.0399647 -0.541172
1764.71 0.0364652 0.0399595 -1.37747
1764.81 0.0366898 0.0399546 -1.27698
1764.91 0.0430156 0.03995 1.13215
1765.01 0.0401619 0.0399455 0.0823245
1765.11 0.0403733 0.0399413 0.165148
1765.21 0.0444016 0.0399373 1.68033
1765.31 0.0414574 0.0399336 0.582114
1765.41 0.0375946 0.03993 -0.909894
1765.51 0.0392983 0.0399265 -0.244194
1765.61 0.0439855 0.0399233 1.50483
1765.71 0.0377118 0.0399202 -0.860202
1765.81 0.0391257 0.0399173 -0.299869
1765.91 0.0394333 0.0399145 -0.183542
1766.01 0.0415145 0.0399118 0.595828
1766.11 0.0421804 0.0399093 0.864727
1766.21 0.0400254 0.039907 0.0460863
1766.31 0.0395972 0.0399047 -0.116927
1766.41 0.043021 0.0399025 1.17372
1766.51 0.0415185 0.0399005 0.602314
1766.61 0.0365317 0.0398986 -1.3099
1766.71 0.0342066 0.0398967 -2.26433
1766.81 0.0407745 0.039895 0.337428
1767.21 0.039585 0.0398888 -0.117259
1767.31 0.0382115 0.0398874 -0.649452
1767.41 0.0418414 0.0398861 0.733035
1767.51 0.0410448 0.0398849 0.442623
1767.61 0.0388943 0.0398838 -0.387362
1767.71 0.0410371 0.0398827 0.437151
1767.81 0.0358083 0.0398816 -1.5859
1767.91 0.0355225 0.0398806 -1.72001
1768.01 0.0426437 0.0398797 1.03112
1768.11 0.0444292 0.0398788 1.69127
1768.21 0.0393684 0.0398779 -0.194395
1768.31 0.0406704 0.0398771 0.304788
1768.41 0.0358355 0.0398763 -1.60815
1768.51 0.0390816 0.0398756 -0.306873
1768.61 0.0453359 0.0398749 1.99789
1768.71 0.0370713 0.0398743 -1.10516
1768.81 0.0361117 0.0398736 -1.47353
1768.91 0.0396844 0.039873 -0.0721585
1769.01 0.0438808 0.0398725 1.51479
1769.11 0.0390933 0.0398719 -0.30337
1769.21 0.0401629 0.0398714 0.11265
1769.31 0.0405094 0.0398709 0.244374
1769.41 0.0414184 0.0398705 0.592299
1769.51 0.0439174 0.0398701 1.50529
1769.61 0.0370527 0.0398696 -1.07896
1769.71 0.0370138 0.0398692 -1.12451
1769.81 0.0420452 0.0398689 0.822026
1769.91 0.0407043 0.0398685 0.3171
1770.01 0.0398741 0.0398682 0.0022762
1770.11 0.0356552 0.0398679 -1.68121
1770.21 0.036356 0.0398676 -1.36783
