# Data from DA_130130_E4.h5 stim 5
# Ratiometric estimator mono-exponential fit
# Fitted model Ca = baseline+delta*exp(-(t-t0)/tau)
# nobs = 142
# number of degrees of freedom = 139
# baseline length = 7
# fit started from point 65
# estimated baseline 0.0370116 and standard error 0.00036778
# estimated delta 0.0178621 and standard error 0.000424059
# estimated tau 5.86966 and standard error 0.349246
# residual sum of squares: 132.228
# RSS per degree of freedom: 0.951278
# Probability of observing a larger of equal RSS per DOF under the null hypothesis: 0.645354

# rss per degree of freedom: 0.951278

# Time    Ca  Prediction  Residual
2950.01 0.0375775 0.0370116 0.470158
2950.11 0.0359426 0.0370116 -0.897902
2950.21 0.0381282 0.0370116 0.919834
2950.31 0.0370419 0.0370116 0.0251028
2950.41 0.0370448 0.0370116 0.0275933
2950.51 0.0370205 0.0370116 0.00743348
2950.61 0.0369861 0.0370116 -0.0213533

2956.51 0.0535545 0.0548736 -0.967348
2956.61 0.054427 0.0545719 -0.105865
2956.71 0.0532169 0.0542753 -0.776917
2956.81 0.0547557 0.0539836 0.566013
2956.91 0.0520684 0.0536969 -1.21717
2957.01 0.0529128 0.0534151 -0.36829
2957.11 0.0543984 0.053138 0.917382
2957.21 0.0552491 0.0528656 1.71939
2957.31 0.0534316 0.0525978 0.611184
2957.41 0.0529023 0.0523345 0.414636
2957.51 0.0515937 0.0520756 -0.364047
2957.61 0.05186 0.0518212 0.0290237
2957.71 0.0515867 0.051571 0.0117643
2957.81 0.0491669 0.051325 -1.64989
2957.91 0.0529175 0.0510833 1.35305
2958.01 0.0497834 0.0508456 -0.798852
2958.11 0.0491273 0.0506119 -1.11592
2958.21 0.0506045 0.0503821 0.166545
2958.31 0.050851 0.0501563 0.523477
2958.41 0.05032 0.0499342 0.293181
2958.51 0.0486218 0.0497159 -0.824911
2958.61 0.0503828 0.0495013 0.663823
2958.71 0.0480294 0.0492903 -0.963213
2958.81 0.0499715 0.0490829 0.670299
2958.91 0.0504776 0.048879 1.19613
2959.01 0.0485541 0.0486785 -0.0949084
2959.11 0.0514278 0.0484814 2.23533
2959.21 0.0460247 0.0482877 -1.75513
2959.31 0.0486074 0.0480972 0.38917
2959.41 0.0492582 0.0479099 1.03973
2959.51 0.0477977 0.0477258 0.0549367
2959.61 0.0472025 0.0475449 -0.266963
2959.71 0.046554 0.0473669 -0.626899
2959.81 0.049741 0.047192 1.93303
2959.91 0.0462638 0.04702 -0.589157
2960.01 0.0439518 0.046851 -2.29642
2960.11 0.0473219 0.0466847 0.498204
2960.21 0.0464289 0.0465213 -0.0722053
2960.31 0.0460251 0.0463607 -0.262984
2960.41 0.0454224 0.0462028 -0.607174
2960.51 0.0483326 0.0460475 1.74348
2960.61 0.0454405 0.0458949 -0.353623
2960.71 0.0460335 0.0457448 0.224074
2960.81 0.0475367 0.0455973 1.50229
2960.91 0.0468876 0.0454522 1.10277
2961.01 0.0455929 0.0453097 0.2211
2961.11 0.0443499 0.0451695 -0.649268
2961.21 0.0448059 0.0450317 -0.172869
2961.31 0.0446201 0.0448962 -0.217303
2961.41 0.0430552 0.044763 -1.35637
2961.51 0.0454613 0.0446321 0.650342
2961.61 0.0428282 0.0445033 -1.33248
2961.71 0.0455059 0.0443768 0.873632
2961.81 0.0440257 0.0442524 -0.179511
2961.91 0.0445866 0.0441301 0.359963
2962.01 0.0434975 0.0440098 -0.408881
2962.11 0.0417379 0.0438916 -1.70621
2962.21 0.0429936 0.0437754 -0.616873
2962.31 0.0447172 0.0436611 0.835482
2962.41 0.044043 0.0435488 0.395055
2962.51 0.0423018 0.0434384 -0.905564
2962.61 0.04267 0.0433298 -0.521863
2962.71 0.0457654 0.0432231 1.99376
2962.81 0.0429043 0.0431181 -0.169184
2962.91 0.0433458 0.043015 0.267959
2963.01 0.042083 0.0429136 -0.656748
2963.11 0.0417651 0.0428139 -0.854474
2963.21 0.0435929 0.0427159 0.690885
2963.31 0.0436021 0.0426195 0.774028
2963.41 0.0446709 0.0425248 1.66998
2963.51 0.0438561 0.0424316 1.12581
2963.61 0.0418797 0.0423401 -0.37175
2963.71 0.0420571 0.0422501 -0.155707
2963.81 0.0400567 0.0421616 -1.7343
2963.91 0.0442047 0.0420746 1.69062
2964.01 0.0416554 0.0419891 -0.268918
2964.11 0.0431692 0.041905 1.0061
2964.21 0.039647 0.0418223 -1.78143
2964.31 0.0411326 0.041741 -0.49879
2964.41 0.0417055 0.0416611 0.0358182
2964.51 0.0415305 0.0415826 -0.042156
2964.61 0.0407508 0.0415054 -0.608587
2964.71 0.0407927 0.0414295 -0.518057
2964.81 0.0444716 0.0413549 2.4473
2964.91 0.0399888 0.0412815 -1.02784
2965.01 0.0409882 0.0412094 -0.178784
2965.11 0.0428933 0.0411384 1.40244
2965.21 0.0401527 0.0410687 -0.754811
2965.31 0.0411833 0.0410002 0.148092
2965.41 0.0406479 0.0409328 -0.231659
2965.51 0.0410725 0.0408666 0.169756
2965.61 0.041408 0.0408015 0.491784
2965.71 0.0398825 0.0407374 -0.704533
2965.81 0.0392188 0.0406745 -1.17579
2965.91 0.0400002 0.0406126 -0.498363
2966.01 0.0398765 0.0405518 -0.541733
2966.11 0.0388839 0.040492 -1.33851
2966.21 0.040638 0.0404332 0.167825
2966.31 0.0407126 0.0403754 0.274065
2966.41 0.0411437 0.0403186 0.666458
2966.51 0.0406113 0.0402627 0.280118
2966.61 0.0391907 0.0402078 -0.834718
2966.71 0.0388512 0.0401538 -1.06517
2966.81 0.0406844 0.0401007 0.472958
2966.91 0.0410256 0.0400485 0.792816
2967.01 0.0397533 0.0399972 -0.198729
2967.11 0.0377961 0.0399468 -1.78317
2967.21 0.0393551 0.0398972 -0.444569
2967.31 0.0409553 0.0398485 0.899529
2967.41 0.0383588 0.0398005 -1.17636
2967.51 0.0414084 0.0397534 1.33905
2967.61 0.0405662 0.0397071 0.694097
2967.71 0.0387834 0.0396616 -0.721246
2967.81 0.0402624 0.0396168 0.526638
2967.91 0.0373395 0.0395728 -1.85843
2968.01 0.0396782 0.0395295 0.121648
2968.11 0.041204 0.039487 1.39752
2968.21 0.0413823 0.0394452 1.56979
2968.31 0.0400743 0.0394041 0.537365
2968.41 0.0393978 0.0393637 0.0279393
2968.51 0.041533 0.0393239 1.79166
2968.61 0.0380137 0.0392849 -1.05247
2968.71 0.0405431 0.0392465 1.05491
2968.81 0.0409224 0.0392087 1.39498
2968.91 0.037306 0.0391716 -1.5622
2969.01 0.0384837 0.0391351 -0.534468
2969.11 0.0400312 0.0390992 0.759119
2969.21 0.0372516 0.039064 -1.50532
2969.31 0.0385266 0.0390293 -0.406173
2969.41 0.0370517 0.0389952 -1.62266
2969.51 0.0405273 0.0389617 1.28334
2969.61 0.039307 0.0389288 0.307692
2969.71 0.0394573 0.0388964 0.460174
2969.81 0.0393062 0.0388645 0.362413
2969.91 0.0379896 0.0388332 -0.693921
