# Data from DA_130514_E4.h5 stim 5
# Ratiometric estimator mono-exponential fit
# Fitted model Ca = baseline+delta*exp(-(t-t0)/tau)
# nobs = 144
# number of degrees of freedom = 141
# baseline length = 7
# fit started from point 63
# estimated baseline 0.0935648 and standard error 0.000982943
# estimated delta 0.055593 and standard error 0.00114156
# estimated tau 7.25705 and standard error 0.339601
# residual sum of squares: 158.23
# RSS per degree of freedom: 1.1222
# Probability of observing a larger of equal RSS per DOF under the null hypothesis: 0.152373

# rss per degree of freedom: 1.1222

# Time    Ca  Prediction  Residual
2270.01 0.0980866 0.0935648 1.53909
2270.11 0.095344 0.0935648 0.608738
2270.21 0.0940245 0.0935648 0.160546
2270.31 0.0916347 0.0935648 -0.675888
2270.41 0.0933493 0.0935648 -0.0759895
2270.51 0.0947376 0.0935648 0.404194
2270.61 0.0929507 0.0935648 -0.216241

2276.31 0.14283 0.149158 -1.67439
2276.41 0.151801 0.148397 0.872317
2276.51 0.146211 0.147647 -0.372149
2276.61 0.152716 0.146906 1.47177
2276.71 0.146482 0.146176 0.0798006
2276.81 0.141085 0.145456 -1.18282
2276.91 0.147147 0.144746 0.630736
2277.01 0.150195 0.144046 1.5677
2277.11 0.142026 0.143355 -0.353756
2277.21 0.135385 0.142674 -1.99301
2277.31 0.14445 0.142002 0.644206
2277.41 0.144033 0.141339 0.70815
2277.51 0.145097 0.140685 1.17603
2277.61 0.139949 0.14004 -0.0246238
2277.71 0.126389 0.139404 -3.75827
2277.81 0.135393 0.138777 -0.939976
2277.91 0.135416 0.138158 -0.754237
2278.01 0.134686 0.137548 -0.793937
2278.11 0.139676 0.136946 0.738808
2278.21 0.136645 0.136352 0.0804506
2278.31 0.139845 0.135767 1.10076
2278.41 0.135755 0.135189 0.158006
2278.51 0.140597 0.134619 1.59782
2278.61 0.135136 0.134058 0.298852
2278.71 0.131841 0.133503 -0.466967
2278.81 0.131698 0.132957 -0.354107
2278.91 0.130683 0.132418 -0.488729
2279.01 0.132718 0.131886 0.233663
2279.11 0.132224 0.131362 0.246529
2279.21 0.131815 0.130844 0.271988
2279.31 0.132444 0.130334 0.592825
2279.41 0.128642 0.129831 -0.345618
2279.51 0.131366 0.129335 0.570294
2279.61 0.128485 0.128845 -0.104496
2279.71 0.126855 0.128362 -0.431868
2279.81 0.126091 0.127886 -0.521219
2279.91 0.123785 0.127416 -1.0675
2280.01 0.136376 0.126953 2.59554
2280.11 0.12623 0.126496 -0.078403
2280.21 0.129476 0.126046 0.984458
2280.31 0.122586 0.125601 -0.893474
2280.41 0.122105 0.125163 -0.90729
2280.51 0.122409 0.12473 -0.685909
2280.61 0.126999 0.124304 0.780248
2280.71 0.119723 0.123883 -1.23765
2280.81 0.120902 0.123468 -0.767768
2280.91 0.121527 0.123059 -0.446963
2281.01 0.130329 0.122655 2.18397
2281.11 0.120276 0.122257 -0.592169
2281.21 0.127417 0.121864 1.57011
2281.31 0.123985 0.121477 0.738931
2281.41 0.121325 0.121095 0.0685862
2281.51 0.124608 0.120718 1.15405
2281.61 0.130644 0.120347 2.92754
2281.71 0.122256 0.11998 0.668922
2281.81 0.120045 0.119619 0.127391
2281.91 0.117972 0.119262 -0.390791
2282.01 0.119065 0.118911 0.0465826
2282.11 0.117142 0.118564 -0.427738
2282.21 0.119764 0.118222 0.456249
2282.31 0.12004 0.117884 0.651433
2282.41 0.11736 0.117551 -0.0589921
2282.51 0.115377 0.117223 -0.563619
2282.61 0.115064 0.116899 -0.554283
2282.71 0.11762 0.11658 0.31752
2282.81 0.115824 0.116265 -0.134387
2282.91 0.120236 0.115954 1.30973
2283.01 0.115906 0.115648 0.0774093
2283.11 0.117978 0.115346 0.809427
2283.21 0.116776 0.115048 0.52612
2283.31 0.111594 0.114754 -0.977589
2283.41 0.1159 0.114464 0.430821
2283.51 0.111976 0.114178 -0.692536
2283.61 0.107761 0.113896 -1.97692
2283.71 0.117785 0.113617 1.26828
2283.81 0.11676 0.113343 1.05568
2283.91 0.113906 0.113072 0.258112
2284.01 0.10854 0.112805 -1.34994
2284.11 0.107457 0.112542 -1.63127
2284.21 0.106896 0.112282 -1.73986
2284.31 0.107669 0.112026 -1.40971
2284.41 0.113509 0.111773 0.541977
2284.51 0.111111 0.111524 -0.130435
2284.61 0.108046 0.111279 -1.02391
2284.71 0.113936 0.111036 0.902045
2284.81 0.112436 0.110797 0.511032
2284.91 0.111584 0.110561 0.314728
2285.01 0.107957 0.110329 -0.753946
2285.11 0.103904 0.110099 -2.02713
2285.21 0.113216 0.109873 1.05296
2285.31 0.114057 0.10965 1.38048
2285.41 0.112818 0.10943 1.06757
2285.51 0.107705 0.109212 -0.492113
2285.61 0.109316 0.108998 0.100746
2285.71 0.106732 0.108787 -0.670039
2285.81 0.108796 0.108579 0.0682731
2285.91 0.111778 0.108373 1.07333
2286.01 0.109323 0.108171 0.362028
2286.11 0.106004 0.107971 -0.643575
2286.21 0.11063 0.107774 0.91657
2286.31 0.111769 0.107579 1.31296
2286.41 0.112549 0.107387 1.61938
2286.51 0.113941 0.107198 2.07582
2286.61 0.107401 0.107012 0.125374
2286.71 0.106314 0.106828 -0.16588
2286.81 0.106297 0.106646 -0.112212
2286.91 0.109948 0.106467 1.10526
2287.01 0.103976 0.106291 -0.757113
2287.11 0.10844 0.106116 0.744962
2287.21 0.100646 0.105945 -1.75984
2287.31 0.104906 0.105775 -0.284604
2287.41 0.10559 0.105608 -0.00593639
2287.51 0.104346 0.105443 -0.35987
2287.61 0.10208 0.105281 -1.05815
2287.71 0.104237 0.10512 -0.290285
2287.81 0.105301 0.104962 0.110149
2287.91 0.110305 0.104806 1.75013
2288.01 0.105282 0.104652 0.205763
2288.11 0.0990333 0.104501 -1.85392
2288.21 0.105338 0.104351 0.320533
2288.31 0.10506 0.104203 0.276426
2288.41 0.100465 0.104058 -1.20565
2288.51 0.100258 0.103914 -1.22285
2288.61 0.098433 0.103773 -1.79019
2288.71 0.10326 0.103633 -0.124328
2288.81 0.10645 0.103495 0.962157
2288.91 0.102779 0.103359 -0.194584
2289.01 0.102441 0.103225 -0.258021
2289.11 0.097472 0.103093 -1.90954
2289.21 0.100669 0.102963 -0.769374
2289.31 0.100028 0.102834 -0.924384
2289.41 0.106346 0.102707 1.18493
2289.51 0.105698 0.102582 1.01563
2289.61 0.101425 0.102459 -0.34429
2289.71 0.109985 0.102337 2.44581
2289.81 0.0976855 0.102217 -1.54566
2289.91 0.099271 0.102098 -0.94569
