# Data from DA_130606_E1.h5 stim 3
# Ratiometric estimator mono-exponential fit
# Fitted model Ca = baseline+delta*exp(-(t-t0)/tau)
# nobs = 152
# number of degrees of freedom = 149
# baseline length = 7
# fit started from point 55
# estimated baseline 0.0948011 and standard error 0.000651327
# estimated delta 0.0328298 and standard error 0.000992187
# estimated tau 4.52266 and standard error 0.335543
# residual sum of squares: 157.908
# RSS per degree of freedom: 1.05979
# Probability of observing a larger of equal RSS per DOF under the null hypothesis: 0.293029

# rss per degree of freedom: 1.05979

# Time    Ca  Prediction  Residual
1597.02 0.0965094 0.0948011 0.608189
1597.12 0.100081 0.0948011 1.81559
1597.21 0.0957798 0.0948011 0.34889
1597.31 0.096792 0.0948011 0.700271
1597.41 0.0942619 0.0948011 -0.193534
1597.51 0.101354 0.0948011 2.25786
1597.61 0.096135 0.0948011 0.479546

1602.51 0.122314 0.127631 -1.5993
1602.61 0.128798 0.126913 0.541747
1602.71 0.125649 0.126211 -0.163778
1602.81 0.129012 0.125524 1.01298
1602.91 0.123693 0.124852 -0.339843
1603.01 0.12229 0.124195 -0.557905
1603.11 0.119744 0.123552 -1.16416
1603.21 0.12298 0.122923 0.0167678
1603.31 0.123327 0.122308 0.302373
1603.41 0.122359 0.121707 0.196324
1603.51 0.121147 0.121118 0.00853619
1603.61 0.119521 0.120543 -0.31039
1603.71 0.114385 0.11998 -1.7643
1603.81 0.124007 0.119429 1.36269
1603.91 0.123277 0.118891 1.31838
1604.01 0.119263 0.118364 0.271781
1604.11 0.116874 0.117849 -0.299559
1604.21 0.119539 0.117345 0.661924
1604.31 0.115469 0.116852 -0.428525
1604.41 0.115317 0.11637 -0.325598
1604.51 0.119234 0.115898 1.02834
1604.61 0.117514 0.115437 0.64232
1604.71 0.11652 0.114985 0.476539
1604.81 0.114074 0.114544 -0.148924
1604.91 0.114843 0.114112 0.228728
1605.01 0.110048 0.11369 -1.17554
1605.11 0.113226 0.113277 -0.0161287
1605.21 0.114553 0.112873 0.527533
1605.31 0.114199 0.112478 0.542637
1605.41 0.110781 0.112091 -0.426338
1605.51 0.106452 0.111713 -1.71513
1605.61 0.108666 0.111343 -0.872685
1605.71 0.108583 0.110981 -0.78303
1605.81 0.112297 0.110627 0.531097
1605.91 0.111232 0.110281 0.305902
1606.01 0.10557 0.109943 -1.46794
1606.11 0.114493 0.109612 1.552
1606.21 0.110814 0.109288 0.492368
1606.31 0.112834 0.108971 1.23775
1606.41 0.106813 0.108661 -0.621325
1606.51 0.110737 0.108358 0.764298
1606.61 0.111485 0.108062 1.12553
1606.71 0.105019 0.107772 -0.9185
1606.81 0.113962 0.107488 2.0493
1606.91 0.108362 0.107211 0.377896
1607.01 0.112006 0.106939 1.62877
1607.11 0.104032 0.106674 -0.905053
1607.21 0.110065 0.106414 1.18807
1607.31 0.10912 0.10616 0.975671
1607.41 0.101376 0.105912 -1.54004
1607.51 0.106131 0.105669 0.154042
1607.61 0.104989 0.105431 -0.148241
1607.71 0.10848 0.105199 1.07162
1607.81 0.10434 0.104971 -0.212776
1607.91 0.108117 0.104749 1.10514
1608.01 0.108023 0.104531 1.14293
1608.11 0.100499 0.104319 -1.32293
1608.21 0.102733 0.10411 -0.459451
1608.31 0.1036 0.103907 -0.104288
1608.41 0.106426 0.103708 0.905651
1608.51 0.0986692 0.103513 -1.69805
1608.61 0.10199 0.103322 -0.454575
1608.71 0.100579 0.103136 -0.877915
1608.81 0.103625 0.102954 0.227379
1608.91 0.101407 0.102776 -0.466691
1609.01 0.103111 0.102601 0.175233
1609.11 0.0946636 0.102431 -2.74679
1609.21 0.101275 0.102264 -0.339593
1609.31 0.107757 0.102101 1.88158
1609.41 0.105153 0.101941 1.09344
1609.51 0.0989286 0.101785 -0.992532
1609.61 0.105873 0.101632 1.39798
1609.71 0.105694 0.101483 1.41831
1609.81 0.104665 0.101337 1.1201
1609.91 0.103732 0.101194 0.874018
1610.01 0.104055 0.101054 1.0031
1610.11 0.0972027 0.100917 -1.33546
1610.21 0.104167 0.100783 1.14118
1610.31 0.0996485 0.100653 -0.345208
1610.41 0.101439 0.100525 0.309315
1610.51 0.0964165 0.100399 -1.39675
1610.61 0.0983636 0.100277 -0.678533
1610.71 0.104873 0.100157 1.60481
1610.81 0.0990728 0.10004 -0.341081
1610.91 0.0954567 0.0999256 -1.59577
1611.01 0.101288 0.0998135 0.506027
1611.11 0.10064 0.0997039 0.32228
1611.21 0.101186 0.0995967 0.552899
1611.31 0.0943534 0.0994918 -1.88155
1611.41 0.100692 0.0993892 0.453719
1611.51 0.103309 0.0992889 1.37735
1611.61 0.100088 0.0991908 0.308486
1611.71 0.106323 0.0990948 2.42552
1611.81 0.0941534 0.0990009 -1.74312
1611.91 0.10178 0.098909 0.967997
1612.01 0.0963634 0.0988192 -0.863896
1612.11 0.0916467 0.0987313 -2.61078
1612.21 0.096701 0.0986454 -0.699022
1612.31 0.0953964 0.0985613 -1.13913
1612.41 0.0999155 0.0984791 0.503084
1612.51 0.101902 0.0983987 1.22911
1612.61 0.0947209 0.09832 -1.30202
1612.71 0.100273 0.098243 0.709242
1612.81 0.100727 0.0981678 0.867792
1612.91 0.0972201 0.0980941 -0.30865
1613.01 0.0966601 0.0980221 -0.476438
1613.11 0.100706 0.0979517 0.963957
1613.21 0.098129 0.0978828 0.0876169
1613.31 0.0961903 0.0978154 -0.579217
1613.41 0.0986182 0.0977495 0.304754
1613.51 0.097948 0.097685 0.0921669
1613.61 0.0939809 0.097622 -1.31934
1613.71 0.0945274 0.0975603 -1.09596
1613.81 0.0942635 0.0974999 -1.16655
1613.91 0.0967297 0.0974409 -0.252324
1614.01 0.0972419 0.0973832 -0.0500457
1614.11 0.091927 0.0973267 -1.99267
1614.21 0.0974713 0.0972715 0.0709472
1614.31 0.0938048 0.0972175 -1.24537
1614.41 0.102564 0.0971646 1.83182
1614.51 0.0995207 0.0971129 0.838723
1614.61 0.0987574 0.0970624 0.586256
1614.71 0.0949564 0.0970129 -0.738202
1614.81 0.0945044 0.0969646 -0.890346
1614.91 0.0996331 0.0969173 0.958368
1615.01 0.0986912 0.096871 0.6359
1615.11 0.0975873 0.0968257 0.271571
1615.21 0.0987362 0.0967814 0.686153
1615.31 0.0966978 0.0967381 -0.0141809
1615.41 0.095992 0.0966958 -0.251543
1615.51 0.0970696 0.0966543 0.146888
1615.61 0.0932373 0.0966138 -1.22432
1615.71 0.0948028 0.0965742 -0.642313
1615.81 0.0930788 0.0965354 -1.2628
1615.91 0.098306 0.0964975 0.637279
1616.01 0.098948 0.0964604 0.8721
1616.11 0.0928438 0.0964241 -1.31076
1616.21 0.0976711 0.0963886 0.451127
1616.31 0.0969228 0.0963539 0.198367
1616.41 0.0966511 0.0963199 0.118103
1616.51 0.0948237 0.0962867 -0.529843
1616.61 0.0916075 0.0962542 -1.69135
1616.71 0.0954139 0.0962225 -0.293802
1616.81 0.0924645 0.0961914 -1.36387
1616.91 0.0987139 0.096161 0.891797
