# Data from DA_130606_E1.h5 stim 2
# Ratiometric estimator mono-exponential fit
# Fitted model Ca = baseline+delta*exp(-(t-t0)/tau)
# nobs = 161
# number of degrees of freedom = 158
# baseline length = 7
# fit started from point 46
# estimated baseline 0.0919411 and standard error 0.000624249
# estimated delta 0.0500669 and standard error 0.001314
# estimated tau 3.90407 and standard error 0.22046
# residual sum of squares: 166.439
# RSS per degree of freedom: 1.05341
# Probability of observing a larger of equal RSS per DOF under the null hypothesis: 0.307174

# rss per degree of freedom: 1.05341

# Time    Ca  Prediction  Residual
1220.02 0.0988204 0.0919411 1.98047
1220.12 0.103008 0.0919411 3.11178
1220.21 0.0953158 0.0919411 0.990288
1220.31 0.0959809 0.0919411 1.17954
1220.41 0.097141 0.0919411 1.5208
1220.51 0.0965013 0.0919411 1.33055
1220.61 0.0931647 0.0919411 0.371828

1224.61 0.134799 0.142008 -1.62089
1224.71 0.138202 0.140742 -0.573808
1224.81 0.139178 0.139508 -0.0741051
1224.91 0.143863 0.138305 1.21305
1225.01 0.134789 0.137132 -0.534775
1225.11 0.136459 0.135989 0.108461
1225.21 0.131062 0.134875 -0.895991
1225.31 0.123379 0.13379 -2.55685
1225.41 0.130548 0.132731 -0.513401
1225.51 0.136306 0.1317 1.045
1225.61 0.131316 0.130694 0.144823
1225.71 0.122808 0.129714 -1.70375
1225.81 0.138255 0.128759 2.15588
1225.91 0.126828 0.127828 -0.240446
1226.01 0.124929 0.12692 -0.476054
1226.11 0.135396 0.126036 2.15276
1226.21 0.131773 0.125174 1.54977
1226.31 0.12053 0.124333 -0.943428
1226.41 0.125487 0.123514 0.47827
1226.51 0.120482 0.122716 -0.557635
1226.61 0.124256 0.121937 0.567214
1226.71 0.124678 0.121179 0.853064
1226.81 0.121932 0.120439 0.371541
1226.91 0.121356 0.119719 0.409807
1227.01 0.115531 0.119016 -0.891268
1227.11 0.116296 0.118332 -0.517854
1227.21 0.113141 0.117664 -1.17251
1227.31 0.123037 0.117014 1.4719
1227.41 0.120232 0.11638 0.955693
1227.51 0.117371 0.115762 0.418352
1227.61 0.118328 0.115159 0.810153
1227.71 0.121112 0.114572 1.62192
1227.81 0.117052 0.114 0.786114
1227.91 0.112933 0.113442 -0.132943
1228.01 0.114918 0.112898 0.525341
1228.11 0.12044 0.112368 2.02147
1228.21 0.110954 0.111852 -0.238434
1228.31 0.114788 0.111348 0.897519
1228.41 0.106024 0.110857 -1.32632
1228.51 0.110411 0.110379 0.00864122
1228.61 0.108457 0.109913 -0.391825
1228.71 0.11406 0.109458 1.20072
1228.81 0.111632 0.109015 0.692094
1228.91 0.10728 0.108583 -0.354625
1229.01 0.10855 0.108162 0.105574
1229.11 0.10762 0.107752 -0.0361162
1229.21 0.11034 0.107352 0.789708
1229.31 0.107745 0.106963 0.212482
1229.41 0.102477 0.106583 -1.17696
1229.51 0.106313 0.106212 0.0274209
1229.61 0.104541 0.105852 -0.367446
1229.71 0.103174 0.1055 -0.644471
1229.81 0.104575 0.105157 -0.162423
1229.91 0.103861 0.104823 -0.268704
1230.01 0.103039 0.104497 -0.40775
1230.11 0.108141 0.104179 1.09
1230.21 0.10398 0.10387 0.0311202
1230.31 0.103938 0.103568 0.10372
1230.41 0.107502 0.103274 1.15488
1230.51 0.103446 0.102988 0.12807
1230.61 0.102839 0.102708 0.0368799
1230.71 0.103097 0.102436 0.186184
1230.81 0.0992267 0.102171 -0.851715
1230.91 0.10647 0.101912 1.23877
1231.01 0.096192 0.10166 -1.58793
1231.11 0.0948991 0.101414 -1.94336
1231.21 0.103551 0.101174 0.647927
1231.31 0.0982831 0.100941 -0.773037
1231.41 0.0984539 0.100713 -0.65109
1231.51 0.097757 0.100491 -0.811421
1231.61 0.0953089 0.100275 -1.47402
1231.71 0.0995201 0.100064 -0.156321
1231.81 0.10131 0.099859 0.414267
1231.91 0.101358 0.0996588 0.483062
1232.01 0.100598 0.0994636 0.325029
1232.11 0.099161 0.0992733 -0.0323369
1232.21 0.101404 0.0990879 0.657037
1232.31 0.0946174 0.0989072 -1.28043
1232.41 0.0988968 0.098731 0.0485111
1232.51 0.105647 0.0985593 1.95162
1232.61 0.102668 0.0983919 1.19362
1232.71 0.099316 0.0982288 0.314085
1232.81 0.0962357 0.0980698 -0.533855
1232.91 0.0959961 0.0979148 -0.574909
1233.01 0.106023 0.0977637 2.2354
1233.11 0.091728 0.0976165 -1.82241
1233.21 0.0993888 0.097473 0.552016
1233.31 0.0940648 0.0973331 -0.962898
1233.41 0.100291 0.0971967 0.878716
1233.51 0.0945514 0.0970638 -0.746109
1233.61 0.104405 0.0969342 2.10533
1233.71 0.0940338 0.096808 -0.836987
1233.81 0.0956537 0.0966849 -0.309569
1233.91 0.0948925 0.0965649 -0.494783
1234.01 0.0966562 0.096448 0.0618718
1234.11 0.0901313 0.096334 -1.90786
1234.21 0.0980138 0.0962229 0.521389
1234.31 0.0990668 0.0961146 0.864593
1234.41 0.0974724 0.0960091 0.429586
1234.51 0.0923313 0.0959062 -1.08063
1234.61 0.101286 0.0958059 1.55515
1234.71 0.0968253 0.0957082 0.330566
1234.81 0.0934221 0.0956129 -0.655845
1234.91 0.0943604 0.0955201 -0.339033
1235.01 0.0945816 0.0954296 -0.253552
1235.11 0.0978439 0.0953413 0.735386
1235.21 0.0965295 0.0952554 0.379136
1235.31 0.0919214 0.0951715 -0.980111
1235.41 0.0964672 0.0950898 0.405457
1235.51 0.0871061 0.0950102 -2.52912
1235.61 0.094894 0.0949326 -0.011552
1235.71 0.0931103 0.0948569 -0.533881
1235.81 0.0959133 0.0947832 0.32797
1235.91 0.0898033 0.0947113 -1.5031
1236.01 0.0929884 0.0946413 -0.490385
1236.11 0.0930956 0.094573 -0.453426
1236.21 0.0881715 0.0945064 -1.99092
1236.31 0.0942216 0.0944416 -0.0657642
1236.41 0.0961031 0.0943783 0.508525
1236.51 0.0928932 0.0943167 -0.425815
1236.61 0.0938685 0.0942566 -0.117894
1236.71 0.0884555 0.094198 -1.78721
1236.81 0.0910278 0.094141 -0.954156
1236.91 0.0942808 0.0940853 0.0585085
1237.01 0.0953399 0.0940311 0.387343
1237.11 0.094753 0.0939783 0.233886
1237.21 0.10052 0.0939267 1.88291
1237.31 0.0957632 0.0938765 0.561199
1237.41 0.0967442 0.0938276 0.852256
1237.51 0.0963446 0.0937799 0.758296
1237.61 0.0949942 0.0937334 0.376559
1237.71 0.0967591 0.093688 0.909309
1237.81 0.090789 0.0936439 -0.873035
1237.91 0.0899855 0.0936008 -1.10674
1238.01 0.0932868 0.0935588 -0.0828358
1238.11 0.099415 0.0935179 1.72784
1238.21 0.0892584 0.093478 -1.30214
1238.31 0.0942428 0.0934392 0.235377
1238.41 0.0918758 0.0934013 -0.463062
1238.51 0.0963055 0.0933644 0.871457
1238.61 0.0930878 0.0933284 -0.0726879
1238.71 0.089552 0.0932933 -1.17245
1238.81 0.0886662 0.0932591 -1.44515
1238.91 0.092432 0.0932257 -0.242378
1239.01 0.0934715 0.0931933 0.083435
1239.11 0.0936131 0.0931616 0.135024
1239.21 0.0868141 0.0931307 -1.98728
1239.31 0.0909316 0.0931006 -0.656939
1239.41 0.0938829 0.0930713 0.244306
1239.51 0.0913234 0.0930427 -0.531865
1239.61 0.0944797 0.0930149 0.434438
1239.71 0.0914108 0.0929877 -0.484612
1239.81 0.0946619 0.0929612 0.509221
1239.91 0.0894747 0.0929355 -1.06936
