# Data from DA_121219_E1.h5 stim 2
# Ratiometric estimator mono-exponential fit
# Fitted model Ca = baseline+delta*exp(-(t-t0)/tau)
# nobs = 165
# number of degrees of freedom = 162
# baseline length = 7
# fit started from point 42
# estimated baseline 0.0531948 and standard error 0.000408082
# estimated delta 0.079805 and standard error 0.00144353
# estimated tau 3.04201 and standard error 0.0933074
# residual sum of squares: 146.318
# RSS per degree of freedom: 0.903198
# Probability of observing a larger of equal RSS per DOF under the null hypothesis: 0.806118

# rss per degree of freedom: 0.903198

# Time    Ca  Prediction  Residual
2830.01 0.0504706 0.0531948 -0.999336
2830.11 0.0531824 0.0531948 -0.00440369
2830.21 0.0454172 0.0531948 -2.93749
2830.31 0.0466744 0.0531948 -2.41822
2830.41 0.054658 0.0531948 0.520549
2830.51 0.0583309 0.0531948 1.78344
2830.61 0.053892 0.0531948 0.248764

2834.21 0.12597 0.133 -1.56396
2834.31 0.133774 0.130419 0.726422
2834.41 0.125494 0.127922 -0.543991
2834.51 0.129585 0.125505 0.889094
2834.61 0.120585 0.123167 -0.586977
2834.71 0.123061 0.120904 0.501341
2834.81 0.124813 0.118714 1.3904
2834.91 0.11223 0.116596 -1.05772
2835.01 0.116072 0.114545 0.362239
2835.11 0.110956 0.112561 -0.399609
2835.21 0.113312 0.110641 0.644835
2835.31 0.111923 0.108784 0.767652
2835.41 0.106313 0.106986 -0.168081
2835.51 0.109699 0.105247 1.10012
2835.61 0.103506 0.103563 -0.0145167
2835.71 0.102112 0.101934 0.0455727
2835.81 0.0991045 0.100358 -0.330626
2835.91 0.100401 0.098833 0.40683
2836.01 0.0925207 0.0973572 -1.29097
2836.11 0.100417 0.095929 1.16807
2836.21 0.0920191 0.094547 -0.689036
2836.31 0.0965841 0.0932098 0.899807
2836.41 0.0915215 0.0919157 -0.108629
2836.51 0.0883322 0.0906636 -0.647107
2836.61 0.0865841 0.0894519 -0.801679
2836.71 0.0865111 0.0882794 -0.50017
2836.81 0.0900312 0.0871448 0.805631
2836.91 0.0854361 0.0860469 -0.176489
2837.01 0.089751 0.0849845 1.31871
2837.11 0.084485 0.0839565 0.152105
2837.21 0.0791288 0.0829617 -1.12015
2837.31 0.0799777 0.0819991 -0.589959
2837.41 0.0831047 0.0810676 0.583426
2837.51 0.0814496 0.0801662 0.382851
2837.61 0.0781244 0.079294 -0.352883
2837.71 0.0816993 0.07845 0.948171
2837.81 0.0740249 0.0776333 -1.10721
2837.91 0.0793524 0.076843 0.75332
2838.01 0.071831 0.0760782 -1.31018
2838.11 0.0754188 0.0753382 0.0243923
2838.21 0.0727554 0.0746221 -0.576231
2838.31 0.0756895 0.0739292 0.540752
2838.41 0.0732137 0.0732587 -0.0141114
2838.51 0.0665522 0.0726098 -1.96201
2838.61 0.0734523 0.071982 0.454578
2838.71 0.0696694 0.0713744 -0.539114
2838.81 0.0736173 0.0707865 0.876051
2838.91 0.0684713 0.0702176 -0.552424
2839.01 0.0715044 0.0696671 0.577653
2839.11 0.0652966 0.0691344 -1.26653
2839.21 0.0693271 0.068619 0.225098
2839.31 0.0708854 0.0681202 0.87834
2839.41 0.0698849 0.0676375 0.721563
2839.51 0.0659632 0.0671705 -0.387313
2839.61 0.0673832 0.0667185 0.219098
2839.71 0.063955 0.0662812 -0.765491
2839.81 0.0695109 0.065858 1.1675
2839.91 0.0617843 0.0654485 -1.22603
2840.01 0.0674378 0.0650522 0.78295
2840.11 0.0641899 0.0646687 -0.16091
2840.21 0.0599144 0.0642977 -1.50158
2840.31 0.0656743 0.0639386 0.576698
2840.41 0.0619369 0.0635912 -0.555248
2840.51 0.0611675 0.063255 -0.700261
2840.61 0.060688 0.0629297 -0.759141
2840.71 0.0637266 0.0626148 0.370665
2840.81 0.0645448 0.0623102 0.742701
2840.91 0.0631634 0.0620154 0.379306
2841.01 0.0614594 0.0617302 -0.0909166
2841.11 0.0612648 0.0614542 -0.0643427
2841.21 0.0579354 0.0611871 -1.10104
2841.31 0.0586425 0.0609286 -0.788399
2841.41 0.0633005 0.0606785 0.869111
2841.51 0.0612048 0.0604365 0.262657
2841.61 0.064203 0.0602023 1.33585
2841.71 0.0634581 0.0599757 1.1537
2841.81 0.0617751 0.0597564 0.685795
2841.91 0.0605088 0.0595442 0.328652
2842.01 0.0604672 0.0593389 0.38523
2842.11 0.0544441 0.0591402 -1.63592
2842.21 0.053173 0.0589479 -2.05232
2842.31 0.0597025 0.0587619 0.322293
2842.41 0.0559422 0.0585818 -0.92964
2842.51 0.0594597 0.0584076 0.358218
2842.61 0.060985 0.0582391 0.923462
2842.71 0.0600804 0.0580759 0.683974
2842.81 0.0594208 0.0579181 0.518751
2842.91 0.0549506 0.0577653 -1.00673
2843.01 0.0596139 0.0576175 0.674322
2843.11 0.0597096 0.0574745 0.774648
2843.21 0.0565996 0.0573361 -0.257616
2843.31 0.053698 0.0572022 -1.23842
2843.41 0.0640988 0.0570726 2.27217
2843.51 0.057916 0.0569472 0.335018
2843.61 0.0608168 0.0568258 1.36225
2843.71 0.0606676 0.0567084 1.3582
2843.81 0.05966 0.0565948 1.0692
2843.91 0.0567812 0.0564848 0.10377
2844.01 0.0610744 0.0563784 1.59603
2844.11 0.0553537 0.0562755 -0.328037
2844.21 0.0515784 0.0561759 -1.65205
2844.31 0.0560323 0.0560795 -0.0165784
2844.41 0.0517063 0.0559862 -1.55843
2844.51 0.0545897 0.0558959 -0.466967
2844.61 0.0566562 0.0558085 0.292431
2844.71 0.0564272 0.055724 0.248431
2844.81 0.0561358 0.0556422 0.17233
2844.91 0.0530303 0.0555631 -0.891795
2845.01 0.0560966 0.0554865 0.213486
2845.11 0.0583975 0.0554124 1.03858
2845.21 0.0576115 0.0553407 0.795412
2845.31 0.056206 0.0552713 0.330605
2845.41 0.0561287 0.0552041 0.326268
2845.51 0.0568623 0.0551391 0.615451
2845.61 0.0509774 0.0550763 -1.48819
2845.71 0.0583672 0.0550154 1.16642
2845.81 0.0607158 0.0549565 1.94565
2845.91 0.0550187 0.0548996 0.0417857
2846.01 0.0525511 0.0548444 -0.811212
2846.11 0.0544288 0.0547911 -0.13093
2846.21 0.0543569 0.0547395 -0.138024
2846.31 0.0529732 0.0546895 -0.617741
2846.41 0.0544777 0.0546412 -0.0584706
2846.51 0.0561742 0.0545944 0.554578
2846.61 0.0546295 0.0545491 0.0288516
2846.71 0.0550207 0.0545053 0.18258
2846.81 0.0530924 0.054463 -0.493538
2846.91 0.0536349 0.0544219 -0.281222
2847.01 0.0525209 0.0543823 -0.662264
2847.11 0.056741 0.0543439 0.834864
2847.21 0.0566435 0.0543067 0.822772
2847.31 0.0554661 0.0542707 0.425522
2847.41 0.0518888 0.0542359 -0.839618
2847.51 0.0533343 0.0542023 -0.313636
2847.61 0.0547568 0.0541697 0.208816
2847.71 0.0542051 0.0541382 0.0239132
2847.81 0.0537078 0.0541077 -0.144355
2847.91 0.0553804 0.0540781 0.465394
2848.01 0.0497402 0.0540496 -1.58077
2848.11 0.0527347 0.0540219 -0.464633
2848.21 0.0585756 0.0539952 1.58704
2848.31 0.0511859 0.0539693 -0.994537
2848.41 0.0546574 0.0539442 0.255859
2848.51 0.0484993 0.05392 -2.01979
2848.61 0.057889 0.0538965 1.39325
2848.71 0.0508771 0.0538739 -1.10749
2848.81 0.049377 0.0538519 -1.66377
2848.91 0.0522162 0.0538306 -0.588631
2849.01 0.0570957 0.0538101 1.13878
2849.11 0.0579184 0.0537902 1.43132
2849.21 0.0512489 0.0537709 -0.919781
2849.31 0.0530803 0.0537523 -0.235734
2849.41 0.0537357 0.0537343 0.000511174
2849.51 0.0517658 0.0537168 -0.709392
2849.61 0.060467 0.0536999 2.29496
2849.71 0.0533839 0.0536836 -0.108225
2849.81 0.0581853 0.0536678 1.57814
2849.91 0.056639 0.0536525 1.04969
