# Data from DA_130531_E1.h5 stim 5
# Ratiometric estimator mono-exponential fit
# Fitted model Ca = baseline+delta*exp(-(t-t0)/tau)
# nobs = 150
# number of degrees of freedom = 147
# baseline length = 7
# fit started from point 57
# estimated baseline 0.050037 and standard error 0.000822106
# estimated delta 0.0413559 and standard error 0.00108824
# estimated tau 5.14467 and standard error 0.342831
# residual sum of squares: 137.32
# RSS per degree of freedom: 0.93415
# Probability of observing a larger of equal RSS per DOF under the null hypothesis: 0.704825

# rss per degree of freedom: 0.93415

# Time    Ca  Prediction  Residual
2480.01 0.0491119 0.050037 -0.30258
2480.11 0.0557494 0.050037 1.80633
2480.21 0.0493731 0.050037 -0.217313
2480.31 0.0505287 0.050037 0.159149
2480.41 0.0471451 0.050037 -0.957213
2480.51 0.0553348 0.050037 1.66234
2480.61 0.047758 0.050037 -0.755208

2485.71 0.0894548 0.0913929 -0.514155
2485.81 0.0926752 0.0905968 0.543358
2485.91 0.0913433 0.089816 0.396401
2486.01 0.0902779 0.0890502 0.318631
2486.11 0.0950137 0.0882992 1.74763
2486.21 0.0889925 0.0875627 0.381844
2486.31 0.0892433 0.0868403 0.638033
2486.41 0.0824939 0.0861319 -0.994597
2486.51 0.0888493 0.0854371 0.899741
2486.61 0.0843067 0.0847556 -0.12084
2486.71 0.0822101 0.0840873 -0.515278
2486.81 0.0827108 0.0834318 -0.199405
2486.91 0.0824471 0.082789 -0.0940744
2487.01 0.0795836 0.0821585 -0.705726
2487.11 0.0748179 0.0815402 -1.90054
2487.21 0.0750163 0.0809337 -1.66159
2487.31 0.0771458 0.080339 -0.887127
2487.41 0.0790447 0.0797557 -0.195594
2487.51 0.0795541 0.0791836 0.104414
2487.61 0.0815632 0.0786225 0.809519
2487.71 0.0751682 0.0780722 -0.824249
2487.81 0.0755594 0.0775326 -0.559174
2487.91 0.0772397 0.0770033 0.0661405
2488.01 0.0775304 0.0764842 0.293376
2488.11 0.0769016 0.0759751 0.257899
2488.21 0.07523 0.0754758 -0.0693055
2488.31 0.0773004 0.0749861 0.649433
2488.41 0.0720272 0.0745058 -0.714725
2488.51 0.0784373 0.0740348 1.21152
2488.61 0.0761067 0.0735728 0.713542
2488.71 0.0685056 0.0731198 -1.34487
2488.81 0.0774946 0.0726754 1.34047
2488.91 0.0709966 0.0722396 -0.359283
2489.01 0.0730978 0.0718122 0.368327
2489.11 0.0710387 0.0713931 -0.102802
2489.21 0.0718544 0.070982 0.248861
2489.31 0.0735513 0.0705788 0.854125
2489.41 0.0741724 0.0701833 1.14795
2489.51 0.0715091 0.0697955 0.491811
2489.61 0.068707 0.0694152 -0.210792
2489.71 0.0655336 0.0690421 -1.03563
2489.81 0.0622392 0.0686763 -1.96274
2489.91 0.0695104 0.0683175 0.349566
2490.01 0.0673225 0.0679656 -0.190107
2490.11 0.0660117 0.0676205 -0.478789
2490.21 0.0677943 0.067282 0.153
2490.31 0.0687801 0.06695 0.538249
2490.41 0.0620409 0.0666245 -1.3747
2490.51 0.0649288 0.0663051 -0.409835
2490.61 0.0709212 0.065992 1.43253
2490.71 0.063122 0.0656849 -0.765453
2490.81 0.0651707 0.0653836 -0.0637728
2490.91 0.0665186 0.0650882 0.421367
2491.01 0.069323 0.0647985 1.31907
2491.11 0.0621527 0.0645143 -0.716236
2491.21 0.0653891 0.0642356 0.334676
2491.31 0.0671984 0.0639623 0.954469
2491.41 0.069723 0.0636942 1.74777
2491.51 0.0668187 0.0634313 1.01393
2491.61 0.0629466 0.0631735 -0.0675822
2491.71 0.0669479 0.0629206 1.17088
2491.81 0.0674218 0.0626726 1.40081
2491.91 0.0627485 0.0624294 0.0965083
2492.01 0.0617791 0.0621908 -0.125255
2492.11 0.0670218 0.0619569 1.47247
2492.21 0.0553189 0.0617274 -1.99649
2492.31 0.0595821 0.0615024 -0.591136
2492.41 0.0583604 0.0612817 -0.907134
2492.51 0.0614934 0.0610652 0.129407
2492.61 0.061152 0.0608529 0.0904046
2492.71 0.0612206 0.0606447 0.175872
2492.81 0.0618683 0.0604405 0.436701
2492.91 0.055554 0.0602402 -1.48499
2493.01 0.0610986 0.0600438 0.319316
2493.11 0.0647895 0.0598512 1.51312
2493.21 0.0591661 0.0596623 -0.151017
2493.31 0.0547375 0.059477 -1.47836
2493.41 0.0582995 0.0592953 -0.300831
2493.51 0.0610502 0.0591171 0.583133
2493.61 0.0617254 0.0589423 0.861161
2493.71 0.0578469 0.0587708 -0.287866
2493.81 0.0534809 0.0586027 -1.63433
2493.91 0.0573478 0.0584378 -0.341721
2494.01 0.05118 0.0582761 -2.28187
2494.11 0.0567403 0.0581175 -0.430468
2494.21 0.0617501 0.057962 1.14703
2494.31 0.0601738 0.0578094 0.729579
2494.41 0.054035 0.0576598 -1.14788
2494.51 0.0599343 0.057513 0.754889
2494.61 0.0606486 0.0573691 0.997361
2494.71 0.0566986 0.057228 -0.166149
2494.81 0.0530649 0.0570896 -1.27972
2494.91 0.0579396 0.0569538 0.297772
2495.01 0.062323 0.0568207 1.66497
2495.11 0.0568172 0.0566901 0.0398278
2495.21 0.0568212 0.056562 0.0817416
2495.31 0.0613044 0.0564364 1.48943
2495.41 0.0547615 0.0563132 -0.495449
2495.51 0.0566712 0.0561924 0.152737
2495.61 0.0597005 0.0560739 1.11782
2495.71 0.0528444 0.0559577 -1.00454
2495.81 0.0572497 0.0558437 0.429605
2495.91 0.0558493 0.0557319 0.036922
2496.01 0.0512722 0.0556223 -1.37169
2496.11 0.063529 0.0555148 2.47021
2496.21 0.0559768 0.0554093 0.17991
2496.31 0.0560012 0.0553059 0.217865
2496.41 0.0554511 0.0552045 0.0775822
2496.51 0.056388 0.055105 0.400551
2496.61 0.0514299 0.0550075 -1.14565
2496.71 0.0529518 0.0549118 -0.615526
2496.81 0.0576996 0.0548179 0.900704
2496.91 0.0465979 0.0547259 -2.65672
2497.01 0.0541659 0.0546356 -0.148054
2497.11 0.0589146 0.0545471 1.37032
2497.21 0.0558544 0.0544603 0.439098
2497.31 0.0546444 0.0543752 0.0854018
2497.41 0.0563881 0.0542916 0.65276
2497.51 0.0505823 0.0542097 -1.16726
2497.61 0.0519517 0.0541294 -0.695361
2497.71 0.0550049 0.0540506 0.298288
2497.81 0.0495535 0.0539734 -1.41388
2497.91 0.0532983 0.0538976 -0.191492
2498.01 0.0566504 0.0538233 0.871674
2498.11 0.0567071 0.0537504 0.93981
2498.21 0.0544314 0.0536789 0.240439
2498.31 0.0548633 0.0536088 0.391604
2498.41 0.0519719 0.05354 -0.501289
2498.51 0.0466559 0.0534726 -2.25558
2498.61 0.0568157 0.0534065 1.07523
2498.71 0.0503434 0.0533416 -0.969409
2498.81 0.0555918 0.053278 0.732067
2498.91 0.0512163 0.0532156 -0.649294
2499.01 0.0544444 0.0531544 0.406686
2499.11 0.0525927 0.0530944 -0.160004
2499.21 0.0470042 0.0530356 -1.9816
2499.31 0.0521841 0.0529778 -0.246137
2499.41 0.0502567 0.0529212 -0.858112
2499.51 0.0543928 0.0528657 0.489283
2499.61 0.05327 0.0528112 0.146342
2499.71 0.0585848 0.0527578 1.82334
2499.81 0.0554825 0.0527055 0.874478
2499.91 0.0490369 0.0526541 -1.16431
