# Data from DA_130531_E1.h5 stim 4
# Ratiometric estimator mono-exponential fit
# Fitted model Ca = baseline+delta*exp(-(t-t0)/tau)
# nobs = 158
# number of degrees of freedom = 155
# baseline length = 7
# fit started from point 49
# estimated baseline 0.0464786 and standard error 0.000641672
# estimated delta 0.0439103 and standard error 0.00127858
# estimated tau 3.84203 and standard error 0.247316
# residual sum of squares: 160.008
# RSS per degree of freedom: 1.03231
# Probability of observing a larger of equal RSS per DOF under the null hypothesis: 0.374776

# rss per degree of freedom: 1.03231

# Time    Ca  Prediction  Residual
1540.02 0.0472183 0.0464786 0.215174
1540.12 0.037632 0.0464786 -2.69475
1540.21 0.0390564 0.0464786 -2.24545
1540.31 0.0443686 0.0464786 -0.625193
1540.41 0.0468183 0.0464786 0.0993949
1540.51 0.0463581 0.0464786 -0.0355309
1540.61 0.0519517 0.0464786 1.5892

1544.91 0.0898724 0.0903889 -0.123817
1545.01 0.0881809 0.0892607 -0.254741
1545.11 0.0883314 0.0881616 0.0409687
1545.21 0.0857206 0.0870907 -0.329702
1545.31 0.0841873 0.0860472 -0.45174
1545.41 0.0873796 0.0850306 0.55581
1545.51 0.0868868 0.0840402 0.687091
1545.61 0.0771598 0.0830751 -1.46474
1545.71 0.0875529 0.0821349 1.29814
1545.81 0.0840958 0.0812188 0.701982
1545.91 0.0777133 0.0803262 -0.636685
1546.01 0.0796652 0.0794566 0.05084
1546.11 0.0746598 0.0786093 -1.01291
1546.21 0.0772208 0.0777838 -0.139338
1546.31 0.074808 0.0769795 -0.544773
1546.41 0.0742733 0.0761959 -0.491113
1546.51 0.0786242 0.0754324 0.784455
1546.61 0.0789154 0.0746885 1.04544
1546.71 0.0707024 0.0739637 -0.83477
1546.81 0.0745793 0.0732576 0.340573
1546.91 0.0724695 0.0725696 -0.0256065
1547.01 0.0684211 0.0718993 -0.89936
1547.11 0.0724496 0.0712461 0.305176
1547.21 0.0667622 0.0706098 -1.00164
1547.31 0.0747593 0.0699898 1.19769
1547.41 0.0787941 0.0693858 2.33273
1547.51 0.0756335 0.0687972 1.73327
1547.61 0.072013 0.0682238 0.977579
1547.71 0.0754216 0.0676651 1.97186
1547.81 0.0686912 0.0671208 0.412916
1547.91 0.062212 0.0665905 -1.17888
1548.01 0.0628045 0.0660738 -0.876432
1548.11 0.0633582 0.0655703 -0.587935
1548.21 0.0639364 0.0650798 -0.301195
1548.31 0.0686751 0.0646019 1.06308
1548.41 0.0686049 0.0641363 1.17186
1548.51 0.0606092 0.0636826 -0.826766
1548.61 0.0609245 0.0632406 -0.625518
1548.71 0.0593658 0.06281 -0.935437
1548.81 0.0615447 0.0623904 -0.227503
1548.91 0.066531 0.0619816 1.19205
1549.01 0.0649425 0.0615833 0.889259
1549.11 0.0583712 0.0611952 -0.786056
1549.21 0.0598901 0.0608171 -0.253791
1549.31 0.0594407 0.0604487 -0.273
1549.41 0.0607243 0.0600898 0.173996
1549.51 0.0623008 0.0597401 0.681376
1549.61 0.0604199 0.0593994 0.27874
1549.71 0.0570862 0.0590674 -0.545678
1549.81 0.051368 0.058744 -2.09362
1549.91 0.0652333 0.0584288 1.80268
1550.01 0.0527578 0.0581218 -1.52396
1550.11 0.0584983 0.0578227 0.185891
1550.21 0.0524451 0.0575312 -1.45418
1550.31 0.0509671 0.0572473 -1.78088
1550.41 0.0563139 0.0569706 -0.181754
1550.51 0.0551293 0.056701 -0.442273
1550.61 0.0553779 0.0564384 -0.295246
1550.71 0.0563323 0.0561825 0.0418779
1550.81 0.0615672 0.0559332 1.53423
1550.91 0.0520917 0.0556903 -1.01198
1551.01 0.055675 0.0554536 0.0614913
1551.11 0.0541912 0.055223 -0.291611
1551.21 0.0527904 0.0549984 -0.60872
1551.31 0.0524027 0.0547795 -0.677902
1551.41 0.0525751 0.0545662 -0.560895
1551.51 0.0506594 0.0543584 -1.06159
1551.61 0.0545334 0.054156 0.105448
1551.71 0.0538086 0.0539587 -0.041841
1551.81 0.050007 0.0537665 -1.08019
1551.91 0.0515766 0.0535793 -0.571581
1552.01 0.0502978 0.0533969 -0.890183
1552.11 0.0508322 0.0532191 -0.67094
1552.21 0.0541805 0.0530459 0.316345
1552.31 0.0561082 0.0528772 0.904454
1552.41 0.0524397 0.0527128 -0.0782131
1552.51 0.0562186 0.0525527 1.01416
1552.61 0.0544203 0.0523966 0.563157
1552.71 0.0523369 0.0522446 0.0260968
1552.81 0.0550765 0.0520964 0.834933
1552.91 0.0569416 0.0519521 1.40959
1553.01 0.0496955 0.0518115 -0.598263
1553.11 0.0487372 0.0516744 -0.852274
1553.21 0.0473091 0.051541 -1.2184
1553.31 0.0562874 0.0514109 1.33661
1553.41 0.0491548 0.0512842 -0.595987
1553.51 0.0585484 0.0511607 2.01223
1553.61 0.052298 0.0510404 0.357688
1553.71 0.0491441 0.0509232 -0.514009
1553.81 0.0535837 0.050809 0.78841
1553.91 0.0508221 0.0506978 0.0355433
1554.01 0.0551589 0.0505894 1.28011
1554.11 0.0510079 0.0504837 0.151323
1554.21 0.0547556 0.0503808 1.22383
1554.31 0.0546542 0.0502806 1.23761
1554.41 0.0469359 0.0501829 -0.949508
1554.51 0.0532067 0.0500877 0.895349
1554.61 0.0488946 0.049995 -0.314149
1554.71 0.049233 0.0499047 -0.194385
1554.81 0.0478873 0.0498166 -0.554691
1554.91 0.0427106 0.0497309 -2.05396
1555.01 0.048442 0.0496473 -0.348307
1555.11 0.0494514 0.0495659 -0.032687
1555.21 0.0498119 0.0494866 0.0947279
1555.31 0.053125 0.0494093 1.05614
1555.41 0.0492633 0.049334 -0.0205047
1555.51 0.0547326 0.0492607 1.56903
1555.61 0.0474476 0.0491892 -0.509038
1555.71 0.0466138 0.0491195 -0.739299
1555.81 0.043067 0.0490517 -1.76758
1555.91 0.0502493 0.0489856 0.358539
1556.01 0.0451041 0.0489212 -1.10946
1556.11 0.05082 0.0488584 0.567057
1556.21 0.054162 0.0487973 1.53408
1556.31 0.0508247 0.0487377 0.595255
1556.41 0.0493806 0.0486797 0.200602
1556.51 0.0442673 0.0486231 -1.27408
1556.61 0.055547 0.048568 1.96079
1556.71 0.0459953 0.0485143 -0.732345
1556.81 0.0506539 0.048462 0.615209
1556.91 0.0536175 0.0484111 1.46621
1557.01 0.052033 0.0483614 1.04104
1557.11 0.0465289 0.048313 -0.518276
1557.21 0.052351 0.0482659 1.16442
1557.31 0.0517577 0.04822 1.01848
1557.41 0.0508811 0.0481753 0.776288
1557.51 0.0520734 0.0481317 1.11315
1557.61 0.0517407 0.0480892 1.03814
1557.71 0.0480978 0.0480478 0.0143894
1557.81 0.0453668 0.0480075 -0.773539
1557.91 0.0426599 0.0479682 -1.57038
1558.01 0.0421965 0.0479299 -1.71279
1558.11 0.042933 0.0478927 -1.49301
1558.21 0.0514243 0.0478563 1.01658
1558.31 0.0478661 0.0478209 0.0129193
1558.41 0.049326 0.0477864 0.446281
1558.51 0.045137 0.0477528 -0.772025
1558.61 0.0492146 0.0477201 0.429482
1558.71 0.0415332 0.0476882 -1.86109
1558.81 0.056664 0.0476571 2.51524
1558.91 0.0486015 0.0476269 0.282191
1559.01 0.0432284 0.0475974 -1.28589
1559.11 0.0455768 0.0475686 -0.579285
1559.21 0.0454428 0.0475406 -0.619253
1559.31 0.0487192 0.0475133 0.340521
1559.41 0.0467579 0.0474867 -0.21388
1559.51 0.0503922 0.0474608 0.837261
1559.61 0.0534088 0.0474356 1.69498
1559.71 0.051344 0.047411 1.12662
1559.81 0.0437387 0.0473871 -1.07623
1559.91 0.0511977 0.0473637 1.09623
