# Data from DA_130531_E1.h5 stim 3
# Ratiometric estimator mono-exponential fit
# Fitted model Ca = baseline+delta*exp(-(t-t0)/tau)
# nobs = 172
# number of degrees of freedom = 169
# baseline length = 7
# fit started from point 35
# estimated baseline 0.0479562 and standard error 0.00060362
# estimated delta 0.0516261 and standard error 0.00176554
# estimated tau 3.25505 and standard error 0.208802
# residual sum of squares: 190.772
# RSS per degree of freedom: 1.12883
# Probability of observing a larger of equal RSS per DOF under the null hypothesis: 0.120436

# rss per degree of freedom: 1.12883

# Time    Ca  Prediction  Residual
1740.02 0.0520649 0.0479562 0.94664
1740.12 0.0419008 0.0479562 -1.46217
1740.21 0.0492274 0.0479562 0.294011
1740.31 0.0439916 0.0479562 -0.93878
1740.41 0.0425742 0.0479562 -1.30654
1740.51 0.0444015 0.0479562 -0.854925
1740.61 0.0556537 0.0479562 1.75735

1743.51 0.0912376 0.0995824 -1.55337
1743.61 0.100707 0.0980204 0.484291
1743.71 0.0940463 0.0965058 -0.463928
1743.81 0.0973951 0.0950369 0.426357
1743.91 0.0882104 0.0936125 -1.02147
1744.01 0.0993111 0.0922312 1.26614
1744.11 0.0933341 0.0908917 0.455382
1744.21 0.0831489 0.0895927 -1.23794
1744.31 0.0899712 0.0883331 0.307865
1744.41 0.089943 0.0871115 0.543975
1744.51 0.08583 0.0859269 -0.018492
1744.61 0.0883259 0.0847781 0.67219
1744.71 0.0835181 0.0836641 -0.0286976
1744.81 0.0845686 0.0825838 0.385778
1744.91 0.079792 0.0815361 -0.345997
1745.01 0.0828989 0.0805202 0.471125
1745.11 0.0817298 0.079535 0.438502
1745.21 0.0876614 0.0785796 1.75721
1745.31 0.089675 0.0776531 2.30202
1745.41 0.0836134 0.0767546 1.34308
1745.51 0.0716891 0.0758834 -0.876126
1745.61 0.0760473 0.0750384 0.204771
1745.71 0.0680303 0.0742191 -1.3194
1745.81 0.0742296 0.0734245 0.166822
1745.91 0.0678128 0.072654 -1.00552
1746.01 0.064463 0.0719068 -1.56808
1746.11 0.0638484 0.0711822 -1.59386
1746.21 0.0746107 0.0704795 0.848473
1746.31 0.0696624 0.0697981 -0.0283001
1746.41 0.0762966 0.0691373 1.46708
1746.51 0.0739173 0.0684964 1.1263
1746.61 0.0749802 0.067875 1.46305
1746.71 0.0641197 0.0672724 -0.673432
1746.81 0.063239 0.066688 -0.751399
1746.91 0.0664435 0.0661213 0.0682234
1747.01 0.0637199 0.0655717 -0.396575
1747.11 0.0640195 0.0650387 -0.2186
1747.21 0.0634841 0.0645219 -0.225489
1747.31 0.0629272 0.0640207 -0.235051
1747.41 0.0711828 0.0635347 1.57777
1747.51 0.0575745 0.0630634 -1.24774
1747.61 0.0614882 0.0626063 -0.247181
1747.71 0.0599237 0.0621631 -0.499552
1747.81 0.0590101 0.0617333 -0.605946
1747.91 0.0570529 0.0613165 -0.948863
1748.01 0.0566451 0.0609123 -0.962331
1748.11 0.0553413 0.0605203 -1.16466
1748.21 0.0587742 0.0601402 -0.30341
1748.31 0.0556744 0.0597716 -0.920995
1748.41 0.070427 0.0594141 2.3473
1748.51 0.0607768 0.0590674 0.374735
1748.61 0.0544663 0.0587313 -0.963388
1748.71 0.0583723 0.0584053 -0.00735401
1748.81 0.0621583 0.0580892 0.896032
1748.91 0.0571536 0.0577826 -0.139636
1749.01 0.0550639 0.0574853 -0.546715
1749.11 0.050711 0.057197 -1.51555
1749.21 0.0683634 0.0569174 2.42996
1749.31 0.0521345 0.0566463 -1.03687
1749.41 0.0501149 0.0563834 -1.48173
1749.51 0.0505417 0.0561284 -1.27738
1749.61 0.0524326 0.0558812 -0.797651
1749.71 0.052034 0.0556414 -0.826818
1749.81 0.0558669 0.0554089 0.103678
1749.91 0.0530571 0.0551834 -0.490009
1750.01 0.0577478 0.0549648 0.624592
1750.11 0.0575008 0.0547528 0.626452
1750.21 0.0494672 0.0545471 -1.2079
1750.31 0.0517042 0.0543477 -0.612509
1750.41 0.0543388 0.0541544 0.0422189
1750.51 0.0594751 0.0539668 1.23086
1750.61 0.0547115 0.053785 0.208604
1750.71 0.0554046 0.0536086 0.404766
1750.81 0.0494494 0.0534376 -0.930938
1750.91 0.0564708 0.0532718 0.7183
1751.01 0.0563896 0.053111 0.736686
1751.11 0.0587177 0.052955 1.29398
1751.21 0.0433785 0.0528038 -2.22756
1751.31 0.060356 0.0526571 1.73645
1751.41 0.0506975 0.0525149 -0.422124
1751.51 0.0553378 0.052377 0.674376
1751.61 0.054516 0.0522432 0.515611
1751.71 0.0539104 0.0521135 0.405177
1751.81 0.0517063 0.0519878 -0.0656102
1751.91 0.0495715 0.0518658 -0.536921
1752.01 0.0488133 0.0517475 -0.697449
1752.11 0.0485257 0.0516328 -0.719863
1752.21 0.0516257 0.0515216 0.0240056
1752.31 0.0542766 0.0514137 0.662178
1752.41 0.0529097 0.0513091 0.371707
1752.51 0.057016 0.0512077 1.31877
1752.61 0.0494912 0.0511093 -0.376414
1752.71 0.0578158 0.0510139 1.55078
1752.81 0.0508455 0.0509214 -0.0176782
1752.91 0.048666 0.0508317 -0.513475
1753.01 0.0480393 0.0507447 -0.625985
1753.11 0.0505497 0.0506603 -0.0261854
1753.21 0.0655494 0.0505785 3.24558
1753.31 0.0493486 0.0504992 -0.266087
1753.41 0.0482751 0.0504222 -0.496986
1753.51 0.0526638 0.0503476 0.535036
1753.61 0.0497256 0.0502753 -0.130727
1753.71 0.0488894 0.0502051 -0.311678
1753.81 0.0556864 0.0501371 1.28054
1753.91 0.0501088 0.0500711 0.00883265
1754.01 0.053612 0.0500071 0.830011
1754.11 0.0514176 0.0499451 0.3416
1754.21 0.0547997 0.0498849 1.14002
1754.31 0.0546438 0.0498265 1.12918
1754.41 0.050498 0.04977 0.171819
1754.51 0.0493234 0.0497151 -0.0928317
1754.61 0.0459656 0.0496619 -0.886665
1754.71 0.0501168 0.0496103 0.119695
1754.81 0.0581556 0.0495602 1.96057
1754.91 0.0531759 0.0495117 0.829589
1755.01 0.0522008 0.0494646 0.637254
1755.11 0.0535295 0.049419 0.962032
1755.21 0.0558337 0.0493747 1.49181
1755.31 0.0531222 0.0493318 0.882531
1755.41 0.0561669 0.0492902 1.58759
1755.51 0.0515518 0.0492499 0.550259
1755.61 0.0446416 0.0492107 -1.11177
1755.71 0.0444958 0.0491728 -1.13405
1755.81 0.0477146 0.049136 -0.333254
1755.91 0.0457586 0.0491003 -0.804317
1756.01 0.0462088 0.0490657 -0.678613
1756.11 0.0450483 0.0490321 -0.975507
1756.21 0.0445635 0.0489995 -1.08567
1756.31 0.0534573 0.048968 1.05242
1756.41 0.0566038 0.0489374 1.73457
1756.51 0.0455634 0.0489077 -0.796697
1756.61 0.0559803 0.0488789 1.6404
1756.71 0.045267 0.048851 -0.860952
1756.81 0.04628 0.0488239 -0.616315
1756.91 0.0490058 0.0487977 0.0491453
1757.01 0.0514677 0.0487722 0.618267
1757.11 0.0511015 0.0487475 0.553027
1757.21 0.0543471 0.0487236 1.28284
1757.31 0.0529764 0.0487004 1.00715
1757.41 0.0475201 0.0486778 -0.272653
1757.51 0.048046 0.048656 -0.145913
1757.61 0.0565421 0.0486348 1.79753
1757.71 0.0465749 0.0486143 -0.492441
1757.81 0.0421328 0.0485944 -1.56091
1757.91 0.0470925 0.0485751 -0.358966
1758.01 0.0403324 0.0485564 -2.02944
1758.11 0.0439971 0.0485382 -1.11837
1758.21 0.0468292 0.0485206 -0.402636
1758.31 0.0565123 0.0485035 1.79425
1758.41 0.0517438 0.048487 0.758791
1758.51 0.0359833 0.0484709 -3.16685
1758.61 0.0582144 0.0484553 2.2362
1758.71 0.044825 0.0484402 -0.870393
1758.81 0.0509429 0.0484256 0.589245
1758.91 0.047861 0.0484114 -0.132374
1759.01 0.0533123 0.0483976 1.1345
1759.11 0.0525525 0.0483843 0.973895
1759.21 0.0421756 0.0483713 -1.50941
1759.31 0.0475465 0.0483588 -0.19009
1759.41 0.0485013 0.0483466 0.0368306
1759.51 0.0414793 0.0483348 -1.6959
1759.61 0.0476659 0.0483233 -0.156907
1759.71 0.0472771 0.0483122 -0.249164
1759.81 0.041947 0.0483014 -1.55731
1759.91 0.0415174 0.048291 -1.65328
