# Data from DA_130524_E4.h5 stim 3
# Ratiometric estimator mono-exponential fit
# Fitted model Ca = baseline+delta*exp(-(t-t0)/tau)
# nobs = 166
# number of degrees of freedom = 163
# baseline length = 7
# fit started from point 41
# estimated baseline 0.0914367 and standard error 0.000808395
# estimated delta 0.0996035 and standard error 0.00267387
# estimated tau 3.17859 and standard error 0.149099
# residual sum of squares: 166.096
# RSS per degree of freedom: 1.01899
# Probability of observing a larger of equal RSS per DOF under the null hypothesis: 0.417908

# rss per degree of freedom: 1.01899

# Time    Ca  Prediction  Residual
1465.02 0.0888526 0.0914367 -0.491889
1465.12 0.0960998 0.0914367 0.846591
1465.21 0.0895765 0.0914367 -0.347761
1465.31 0.102388 0.0914367 1.92231
1465.41 0.0873118 0.0914367 -0.780258
1465.51 0.0908133 0.0914367 -0.116731
1465.61 0.0996197 0.0914367 1.46626

1469.11 0.190567 0.19104 -0.0547575
1469.21 0.19547 0.187955 0.838898
1469.31 0.194674 0.184966 1.10506
1469.41 0.182996 0.182069 0.110492
1469.51 0.178053 0.179263 -0.145006
1469.61 0.170144 0.176542 -0.79765
1469.71 0.184444 0.173907 1.27747
1469.81 0.174938 0.171353 0.446457
1469.91 0.175674 0.168877 0.851868
1470.01 0.169794 0.166479 0.420755
1470.11 0.162735 0.164155 -0.187013
1470.21 0.145996 0.161903 -2.23741
1470.31 0.163377 0.15972 0.479136
1470.41 0.160476 0.157606 0.375438
1470.51 0.155929 0.155556 0.0505255
1470.61 0.141301 0.153571 -1.75082
1470.71 0.145455 0.151646 -0.881743
1470.81 0.144668 0.149781 -0.736884
1470.91 0.148285 0.147974 0.0430056
1471.01 0.148705 0.146223 0.345999
1471.11 0.143629 0.144527 -0.13097
1471.21 0.141963 0.142882 -0.131632
1471.31 0.142856 0.141289 0.225044
1471.41 0.140639 0.139745 0.131301
1471.51 0.130304 0.138249 -1.1986
1471.61 0.13399 0.136799 -0.420232
1471.71 0.133017 0.135394 -0.354462
1471.81 0.137144 0.134033 0.46097
1471.91 0.148388 0.132714 2.20247
1472.01 0.125655 0.131435 -0.895071
1472.11 0.136537 0.130196 0.94395
1472.21 0.12791 0.128996 -0.16654
1472.31 0.128181 0.127833 0.0532031
1472.41 0.121497 0.126706 -0.82598
1472.51 0.123706 0.125613 -0.30411
1472.61 0.128296 0.124555 0.578324
1472.71 0.115595 0.123529 -1.31488
1472.81 0.132168 0.122535 1.48178
1472.91 0.116953 0.121572 -0.744967
1473.01 0.117882 0.120639 -0.444229
1473.11 0.119144 0.119734 -0.0957955
1473.21 0.124521 0.118858 0.886585
1473.31 0.115901 0.118009 -0.339124
1473.41 0.1147 0.117186 -0.414693
1473.51 0.112023 0.116388 -0.725143
1473.61 0.121061 0.115616 0.872092
1473.71 0.125012 0.114867 1.59911
1473.81 0.125099 0.114141 1.72773
1473.91 0.106585 0.113438 -1.17263
1474.01 0.109652 0.112756 -0.526926
1474.11 0.100634 0.112096 -2.0501
1474.21 0.111613 0.111456 0.0264245
1474.31 0.116076 0.110836 0.855345
1474.41 0.117495 0.110235 1.20671
1474.51 0.100681 0.109653 -1.54964
1474.61 0.114306 0.109089 0.867654
1474.71 0.112043 0.108542 0.583509
1474.81 0.107601 0.108013 -0.069327
1474.91 0.109156 0.107499 0.284658
1475.01 0.114119 0.107002 1.1783
1475.11 0.110756 0.10652 0.722211
1475.21 0.0946654 0.106053 -2.08202
1475.31 0.113346 0.1056 1.30681
1475.41 0.103191 0.105161 -0.34706
1475.51 0.100378 0.104736 -0.774736
1475.61 0.101951 0.104324 -0.416506
1475.71 0.0995845 0.103925 -0.773759
1475.81 0.101999 0.103538 -0.272378
1475.91 0.0949348 0.103164 -1.48071
1476.01 0.0982612 0.1028 -0.810762
1476.11 0.115071 0.102448 2.11113
1476.21 0.101846 0.102107 -0.0451648
1476.31 0.104199 0.101777 0.422456
1476.41 0.0988774 0.101457 -0.457778
1476.51 0.0942472 0.101146 -1.27026
1476.61 0.10165 0.100846 0.141675
1476.71 0.101661 0.100554 0.19384
1476.81 0.100161 0.100272 -0.0198571
1476.91 0.103801 0.0999983 0.664055
1477.01 0.106544 0.0997331 1.18648
1477.11 0.0969241 0.0994762 -0.456855
1477.21 0.106403 0.0992272 1.21378
1477.31 0.104434 0.0989859 0.952572
1477.41 0.104369 0.0987521 0.998472
1477.51 0.0994659 0.0985255 0.166509
1477.61 0.100088 0.098306 0.313836
1477.71 0.102025 0.0980932 0.698697
1477.81 0.0923176 0.0978871 -1.02803
1477.91 0.0992677 0.0976873 0.287444
1478.01 0.108391 0.0974937 1.82077
1478.11 0.0942886 0.0973061 -0.557947
1478.21 0.0945203 0.0971244 -0.471019
1478.31 0.0975132 0.0969482 0.100585
1478.41 0.0988992 0.0967775 0.37201
1478.51 0.0908438 0.0966121 -1.05673
1478.61 0.0959866 0.0964518 -0.083896
1478.71 0.10164 0.0962965 0.933747
1478.81 0.103965 0.096146 1.38259
1478.91 0.0821171 0.0960001 -2.72566
1479.01 0.0976927 0.0958588 0.325089
1479.11 0.101887 0.0957219 1.08574
1479.21 0.100256 0.0955891 0.830002
1479.31 0.0948878 0.0954605 -0.105599
1479.41 0.0976067 0.0953359 0.409611
1479.51 0.0963869 0.0952152 0.213448
1479.61 0.0998398 0.0950981 0.84052
1479.71 0.0975529 0.0949847 0.468558
1479.81 0.102066 0.0948749 1.26092
1479.91 0.10168 0.0947684 1.18802
1480.01 0.0967837 0.0946652 0.37913
1480.11 0.0959306 0.0945652 0.251298
1480.21 0.0920156 0.0944683 -0.459752
1480.31 0.0911521 0.0943744 -0.603045
1480.41 0.0913179 0.0942834 -0.55266
1480.51 0.0971841 0.0941953 0.546879
1480.61 0.0966884 0.0941098 0.467367
1480.71 0.0984646 0.0940271 0.804946
1480.81 0.0935316 0.0939468 -0.0749241
1480.91 0.0950499 0.0938691 0.214526
1481.01 0.0930277 0.0937938 -0.140394
1481.11 0.0932451 0.0937208 -0.0891116
1481.21 0.0969176 0.09365 0.599223
1481.31 0.0904045 0.0935815 -0.590456
1481.41 0.105986 0.0935151 2.17893
1481.51 0.0799672 0.0934507 -2.6119
1481.61 0.0960275 0.0933883 0.480114
1481.71 0.101173 0.0933279 1.37819
1481.81 0.0926405 0.0932693 -0.11623
1481.91 0.0932273 0.0932125 0.00273313
1482.01 0.0876556 0.0931576 -1.03251
1482.11 0.0995415 0.0931043 1.14184
1482.21 0.0799609 0.0930526 -2.54934
1482.31 0.095276 0.0930026 0.416083
1482.41 0.0986696 0.0929541 1.0016
1482.51 0.0871298 0.0929071 -1.08911
1482.61 0.0901915 0.0928615 -0.501465
1482.71 0.0914486 0.0928174 -0.256199
1482.81 0.0926366 0.0927747 -0.025858
1482.91 0.0970933 0.0927332 0.792689
1483.01 0.0906042 0.0926931 -0.392492
1483.11 0.100442 0.0926542 1.40504
1483.21 0.0952352 0.0926165 0.483424
1483.31 0.0986782 0.0925799 1.08987
1483.41 0.106916 0.0925445 2.49994
1483.51 0.0923208 0.0925102 -0.0352785
1483.61 0.0849034 0.092477 -1.47251
1483.71 0.0934705 0.0924447 0.189787
1483.81 0.0887626 0.0924135 -0.692635
1483.91 0.0853665 0.0923833 -1.35049
1484.01 0.0784491 0.092354 -2.73917
1484.11 0.0869519 0.0923256 -1.01801
1484.21 0.0881966 0.092298 -0.783364
1484.31 0.087102 0.0922713 -0.974726
1484.41 0.0861708 0.0922455 -1.16951
1484.51 0.0874163 0.0922205 -0.929762
1484.61 0.0956367 0.0921962 0.621386
1484.71 0.094063 0.0921727 0.352921
1484.81 0.0800754 0.0921499 -2.39005
1484.91 0.0927644 0.0921278 0.117622
