# Data from DA_130524_E4.h5 stim 2
# Ratiometric estimator mono-exponential fit
# Fitted model Ca = baseline+delta*exp(-(t-t0)/tau)
# nobs = 176
# number of degrees of freedom = 173
# baseline length = 7
# fit started from point 31
# estimated baseline 0.0989784 and standard error 0.000883665
# estimated delta 0.130237 and standard error 0.00433949
# estimated tau 2.63523 and standard error 0.129955
# residual sum of squares: 161.759
# RSS per degree of freedom: 0.935025
# Probability of observing a larger of equal RSS per DOF under the null hypothesis: 0.719671

# rss per degree of freedom: 0.935025

# Time    Ca  Prediction  Residual
990.015 0.0959789 0.0989784 -0.426522
990.115 0.0917333 0.0989784 -1.02413
990.215 0.107766 0.0989784 1.15099
990.315 0.0902833 0.0989784 -1.23601
990.415 0.101541 0.0989784 0.348563
990.515 0.101883 0.0989784 0.387833
990.615 0.104412 0.0989784 0.724125

993.115 0.217541 0.229215 -0.920585
993.215 0.222825 0.224366 -0.120039
993.315 0.235088 0.219697 1.13868
993.415 0.239057 0.215202 1.7468
993.515 0.210309 0.210874 -0.0462116
993.615 0.206377 0.206707 -0.0270585
993.715 0.208939 0.202696 0.511871
993.815 0.192604 0.198834 -0.550015
993.915 0.200115 0.195115 0.421262
994.015 0.18307 0.191536 -0.766487
994.115 0.179393 0.188089 -0.812064
994.215 0.185687 0.184771 0.0830251
994.315 0.180486 0.181576 -0.101875
994.415 0.200037 0.178501 1.84174
994.515 0.176892 0.17554 0.127143
994.615 0.181332 0.172689 0.78542
994.715 0.172372 0.169944 0.241636
994.815 0.16891 0.167302 0.1559
994.915 0.154531 0.164758 -1.064
995.015 0.172519 0.162308 0.983572
995.115 0.173464 0.15995 1.32321
995.215 0.139416 0.15768 -2.04017
995.315 0.148011 0.155494 -0.813009
995.415 0.141358 0.153389 -1.28766
995.515 0.150681 0.151363 -0.0719103
995.615 0.14172 0.149413 -0.856193
995.715 0.141986 0.147535 -0.612662
995.815 0.139322 0.145727 -0.71564
995.915 0.1565 0.143986 1.28625
996.015 0.12862 0.14231 -1.57929
996.115 0.154995 0.140696 1.52804
996.215 0.14162 0.139143 0.276054
996.315 0.128915 0.137647 -1.02847
996.415 0.159779 0.136208 2.41584
996.515 0.130103 0.134821 -0.556367
996.615 0.136295 0.133487 0.318632
996.715 0.120165 0.132202 -1.46832
996.815 0.127469 0.130965 -0.411815
996.915 0.132145 0.129774 0.279062
997.015 0.120767 0.128627 -0.964217
997.115 0.126256 0.127523 -0.148456
997.215 0.135574 0.12646 1.04308
997.315 0.107024 0.125437 -2.37596
997.415 0.120748 0.124451 -0.446539
997.515 0.121968 0.123503 -0.187634
997.615 0.127548 0.12259 0.592631
997.715 0.124808 0.121711 0.375227
997.815 0.126717 0.120864 0.712332
997.915 0.128143 0.120049 0.956664
998.015 0.104938 0.119265 -1.86801
998.115 0.121654 0.118509 0.380574
998.215 0.114145 0.117782 -0.457363
998.315 0.112424 0.117082 -0.598819
998.415 0.135028 0.116408 2.14712
998.515 0.117494 0.115759 0.216538
998.615 0.122032 0.115134 0.850848
998.715 0.10354 0.114532 -1.45897
998.815 0.131631 0.113953 2.07902
998.915 0.12206 0.113395 1.05822
999.015 0.121785 0.112859 1.08752
999.115 0.109206 0.112342 -0.411737
999.215 0.109948 0.111844 -0.243992
999.315 0.11208 0.111365 0.0915487
999.415 0.110167 0.110904 -0.0984126
999.515 0.117892 0.11046 0.906984
999.615 0.0985102 0.110032 -1.59656
999.715 0.109097 0.109621 -0.0673288
999.815 0.108036 0.109224 -0.15361
999.915 0.114419 0.108843 0.69135
1000.01 0.11348 0.108476 0.638152
1000.11 0.107037 0.108122 -0.143842
1000.21 0.121668 0.107781 1.72752
1000.31 0.117241 0.107454 1.24516
1000.41 0.0994178 0.107138 -1.04704
1000.51 0.0982492 0.106834 -1.16616
1000.61 0.108063 0.106542 0.19867
1000.71 0.107558 0.10626 0.16904
1000.81 0.104661 0.105989 -0.173308
1000.91 0.119887 0.105728 1.78004
1001.01 0.104595 0.105477 -0.115548
1001.11 0.118696 0.105235 1.6849
1001.21 0.104547 0.105002 -0.0600566
1001.31 0.110342 0.104777 0.706137
1001.41 0.101247 0.104561 -0.452739
1001.51 0.115739 0.104354 1.45726
1001.61 0.0903909 0.104153 -1.91145
1001.71 0.105915 0.103961 0.251997
1001.81 0.0966917 0.103775 -0.987261
1001.91 0.106158 0.103597 0.339353
1002.01 0.106036 0.103425 0.345602
1002.11 0.112714 0.103259 1.20393
1002.21 0.105046 0.1031 0.258094
1002.31 0.107791 0.102946 0.637917
1002.41 0.0934472 0.102798 -1.31327
1002.51 0.0904521 0.102656 -1.72167
1002.61 0.0997976 0.102519 -0.35872
1002.71 0.111787 0.102387 1.17066
1002.81 0.113417 0.10226 1.40921
1002.91 0.107686 0.102138 0.738208
1003.01 0.0977901 0.102021 -0.568704
1003.11 0.0981337 0.101907 -0.521578
1003.21 0.101721 0.101798 -0.0103804
1003.31 0.10245 0.101693 0.0999188
1003.41 0.109894 0.101592 1.05033
1003.51 0.112237 0.101495 1.35914
1003.61 0.0942991 0.101401 -0.996347
1003.71 0.117275 0.101311 2.00641
1003.81 0.1014 0.101224 0.0233082
1003.91 0.0984235 0.10114 -0.366078
1004.01 0.096405 0.10106 -0.640454
1004.11 0.0956959 0.100982 -0.730717
1004.21 0.0873862 0.100908 -1.92932
1004.31 0.104527 0.100836 0.492965
1004.41 0.109852 0.100767 1.16723
1004.51 0.0960914 0.1007 -0.642256
1004.61 0.102403 0.100636 0.234326
1004.71 0.102886 0.100574 0.308891
1004.81 0.104438 0.100515 0.515619
1004.91 0.102086 0.100458 0.215927
1005.01 0.101834 0.100403 0.194893
1005.11 0.0981185 0.10035 -0.304701
1005.21 0.103084 0.100299 0.380859
1005.31 0.100165 0.100249 -0.0115116
1005.41 0.109721 0.100202 1.25213
1005.51 0.11026 0.100157 1.34181
1005.61 0.101842 0.100113 0.233571
1005.71 0.0900568 0.10007 -1.43678
1005.81 0.103729 0.10003 0.481911
1005.91 0.103011 0.0999906 0.411404
1006.01 0.0969069 0.0999529 -0.413667
1006.11 0.1132 0.0999166 1.69644
1006.21 0.0897663 0.0998817 -1.46427
1006.31 0.0983354 0.0998481 -0.202979
1006.41 0.108568 0.0998157 1.15294
1006.51 0.0954124 0.0997845 -0.604414
1006.61 0.0859993 0.0997545 -1.99877
1006.71 0.0978161 0.0997256 -0.26258
1006.81 0.103311 0.0996978 0.490021
1006.91 0.095734 0.099671 -0.556412
1007.01 0.104529 0.0996452 0.657063
1007.11 0.0978728 0.0996204 -0.23902
1007.21 0.102437 0.0995965 0.386207
1007.31 0.100826 0.0995735 0.17363
1007.41 0.105315 0.0995513 0.767539
1007.51 0.10302 0.09953 0.475086
1007.61 0.0954769 0.0995094 -0.565608
1007.71 0.109481 0.0994897 1.30353
1007.81 0.0995271 0.0994706 0.00780937
1007.91 0.0938626 0.0994523 -0.783281
1008.01 0.0952829 0.0994347 -0.587542
1008.11 0.104828 0.0994177 0.722002
1008.21 0.10006 0.0994013 0.0909599
1008.31 0.0970486 0.0993856 -0.321523
1008.41 0.104389 0.0993704 0.675426
1008.51 0.0832992 0.0993558 -2.44556
1008.61 0.0972944 0.0993418 -0.292072
1008.71 0.0992793 0.0993282 -0.0067924
1008.81 0.0948714 0.0993152 -0.632286
1008.91 0.0898324 0.0993027 -1.38687
1009.01 0.104482 0.0992906 0.71259
1009.11 0.100498 0.099279 0.169755
1009.21 0.099161 0.0992678 -0.0146817
1009.31 0.0969973 0.099257 -0.315969
1009.41 0.0954229 0.0992466 -0.533254
1009.51 0.0966594 0.0992366 -0.364943
1009.61 0.0945829 0.099227 -0.659627
1009.71 0.08814 0.0992178 -1.647
1009.81 0.107954 0.0992089 1.17058
1009.91 0.0981683 0.0992003 -0.142292
