# Data from DA_130524_E4.h5 stim 5
# Ratiometric estimator mono-exponential fit
# Fitted model Ca = baseline+delta*exp(-(t-t0)/tau)
# nobs = 157
# number of degrees of freedom = 154
# baseline length = 7
# fit started from point 50
# estimated baseline 0.071933 and standard error 0.000868446
# estimated delta 0.0699027 and standard error 0.00151718
# estimated tau 4.45326 and standard error 0.222276
# residual sum of squares: 157.141
# RSS per degree of freedom: 1.0204
# Probability of observing a larger of equal RSS per DOF under the null hypothesis: 0.414606

# rss per degree of freedom: 1.0204

# Time    Ca  Prediction  Residual
2345.01 0.0756274 0.071933 0.942847
2345.11 0.0739546 0.071933 0.514803
2345.21 0.0720934 0.071933 0.0415043
2345.31 0.06862 0.071933 -0.874167
2345.41 0.0710424 0.071933 -0.232262
2345.51 0.078056 0.071933 1.54133
2345.61 0.0751842 0.071933 0.833521

2350.01 0.139787 0.141836 -0.374332
2350.11 0.140192 0.140283 -0.0167308
2350.21 0.138931 0.138766 0.030432
2350.31 0.136842 0.137282 -0.0821579
2350.41 0.141237 0.135831 0.969444
2350.51 0.136374 0.134412 0.363728
2350.61 0.137719 0.133024 0.863038
2350.71 0.12432 0.131668 -1.44572
2350.81 0.133828 0.130341 0.660032
2350.91 0.131186 0.129044 0.404706
2351.01 0.129916 0.127776 0.399547
2351.11 0.12325 0.126536 -0.659842
2351.21 0.123036 0.125324 -0.449338
2351.31 0.130779 0.124138 1.27238
2351.41 0.120946 0.122979 -0.407064
2351.51 0.118996 0.121846 -0.566683
2351.61 0.111427 0.120737 -1.92706
2351.71 0.11445 0.119653 -1.06611
2351.81 0.117931 0.118594 -0.135301
2351.91 0.127455 0.117558 1.90639
2352.01 0.107867 0.116545 -1.82152
2352.11 0.113108 0.115554 -0.503307
2352.21 0.113215 0.114585 -0.282986
2352.31 0.113443 0.113638 -0.040162
2352.41 0.109041 0.112712 -0.767932
2352.51 0.112668 0.111807 0.182538
2352.61 0.11592 0.110921 1.02037
2352.71 0.110409 0.110056 0.0741858
2352.81 0.109219 0.109209 0.00209117
2352.91 0.107151 0.108381 -0.261653
2353.01 0.107539 0.107572 -0.00708835
2353.11 0.11366 0.106781 1.42793
2353.21 0.110574 0.106007 0.953002
2353.31 0.105225 0.10525 -0.00550193
2353.41 0.109784 0.10451 1.1155
2353.51 0.107656 0.103787 0.816812
2353.61 0.106722 0.10308 0.774345
2353.71 0.104948 0.102388 0.559724
2353.81 0.103466 0.101712 0.380828
2353.91 0.100082 0.101051 -0.212693
2354.01 0.107954 0.100404 1.61578
2354.11 0.0997195 0.0997718 -0.0116497
2354.21 0.0974105 0.0991536 -0.392916
2354.31 0.0898723 0.0985492 -2.04143
2354.41 0.0924152 0.0979581 -1.30834
2354.51 0.0996782 0.0973802 0.509927
2354.61 0.0923726 0.0968152 -1.04296
2354.71 0.10075 0.0962627 0.986318
2354.81 0.0964287 0.0957224 0.160411
2354.91 0.0905774 0.0951942 -1.08744
2355.01 0.0909476 0.0946777 -0.870342
2355.11 0.0968845 0.0941726 0.632518
2355.21 0.090545 0.0936788 -0.728632
2355.31 0.0891186 0.0931959 -0.971012
2355.41 0.0904854 0.0927238 -0.513886
2355.51 0.0936281 0.0922621 0.314049
2355.61 0.0902594 0.0918107 -0.36366
2355.71 0.0965477 0.0913693 1.15568
2355.81 0.0905302 0.0909377 -0.0964071
2355.91 0.0981646 0.0905157 1.71287
2356.01 0.0916135 0.0901031 0.346966
2356.11 0.0907088 0.0896996 0.238639
2356.21 0.0950569 0.0893051 1.29144
2356.31 0.0910631 0.0889193 0.497595
2356.41 0.085104 0.0885421 -0.821342
2356.51 0.0831144 0.0881733 -1.24436
2356.61 0.0958476 0.0878127 1.82522
2356.71 0.0869992 0.0874601 -0.108077
2356.81 0.0947972 0.0871153 1.77286
2356.91 0.0913842 0.0867782 1.06255
2357.01 0.0844506 0.0864486 -0.485277
2357.11 0.0829447 0.0861262 -0.759781
2357.21 0.088509 0.0858111 0.633493
2357.31 0.0863605 0.0855029 0.206923
2357.41 0.0881905 0.0852016 0.708005
2357.51 0.0814072 0.0849069 -0.849898
2357.61 0.0874177 0.0846189 0.660383
2357.71 0.0819191 0.0843372 -0.595292
2357.81 0.0893041 0.0840617 1.22652
2357.91 0.0845421 0.0837924 0.186102
2358.01 0.0725375 0.0835291 -2.78559
2358.11 0.0858964 0.0832716 0.637461
2358.21 0.0804609 0.0830198 -0.629114
2358.31 0.0823743 0.0827736 -0.0968605
2358.41 0.0757402 0.0825329 -1.70957
2358.51 0.0906913 0.0822975 1.94589
2358.61 0.0857941 0.0820674 0.899496
2358.71 0.0788101 0.0818423 -0.763372
2358.81 0.0773147 0.0816223 -1.08349
2358.91 0.0838881 0.0814071 0.601419
2359.01 0.0793649 0.0811968 -0.458196
2359.11 0.0758408 0.0809911 -1.31117
2359.21 0.0819646 0.0807899 0.288762
2359.31 0.0806985 0.0805933 0.026103
2359.41 0.0773629 0.080401 -0.765227
2359.51 0.0816995 0.0802129 0.363687
2359.61 0.073327 0.0800291 -1.70356
2359.71 0.0793985 0.0798493 -0.111945
2359.81 0.0794408 0.0796735 -0.0575493
2359.91 0.0809563 0.0795016 0.348093
2360.01 0.0870234 0.0793336 1.82643
2360.11 0.0815351 0.0791692 0.587598
2360.21 0.0866064 0.0790086 1.83895
2360.31 0.0691546 0.0788514 -2.54996
2360.41 0.0758082 0.0786978 -0.726147
2360.51 0.0851426 0.0785476 1.61249
2360.61 0.0748968 0.0784007 -0.888894
2360.71 0.0831018 0.0782571 1.18927
2360.81 0.0770435 0.0781167 -0.267887
2360.91 0.0751797 0.0779794 -0.71254
2361.01 0.0838004 0.0778451 1.42238
2361.11 0.0851451 0.0777138 1.82436
2361.21 0.0793665 0.0775855 0.44641
2361.31 0.0796147 0.0774599 0.535277
2361.41 0.0749598 0.0773372 -0.605
2361.51 0.0739316 0.0772172 -0.822404
2361.61 0.0721615 0.0770999 -1.27424
2361.71 0.0796911 0.0769851 0.675559
2361.81 0.0714326 0.076873 -1.4069
2361.91 0.0733688 0.0767633 -0.880466
2362.01 0.0786879 0.076656 0.504164
2362.11 0.0780768 0.0765511 0.382092
2362.21 0.0818782 0.0764486 1.3312
2362.31 0.0781172 0.0763483 0.446526
2362.41 0.0700464 0.0762503 -1.6147
2362.51 0.0722262 0.0761544 -1.00927
2362.61 0.0767426 0.0760607 0.172729
2362.71 0.0853578 0.075969 2.26006
2362.81 0.0743877 0.0758794 -0.37979
2362.91 0.0822237 0.0757918 1.595
2363.01 0.0751124 0.0757061 -0.151134
2363.11 0.0690477 0.0756223 -1.75372
2363.21 0.0710386 0.0755404 -1.16832
2363.31 0.0693589 0.0754603 -1.58438
2363.41 0.0834883 0.075382 1.96571
2363.51 0.0758118 0.0753054 0.128413
2363.61 0.0713347 0.0752305 -1.01347
2363.71 0.0775379 0.0751573 0.602761
2363.81 0.0761443 0.0750857 0.267878
2363.91 0.0724317 0.0750157 -0.672699
2364.01 0.0755921 0.0749472 0.162299
2364.11 0.0771011 0.0748803 0.556893
2364.21 0.0805707 0.0748148 1.43078
2364.31 0.0702986 0.0747508 -1.15525
2364.41 0.0764954 0.0746883 0.456874
2364.51 0.074261 0.0746271 -0.0927429
2364.61 0.0716281 0.0745673 -0.757562
2364.71 0.070359 0.0745088 -1.08946
2364.81 0.0712039 0.0744516 -0.844511
2364.91 0.0726798 0.0743956 -0.44005
