# Data from DA_130524_E4.h5 stim 4
# Ratiometric estimator mono-exponential fit
# Fitted model Ca = baseline+delta*exp(-(t-t0)/tau)
# nobs = 160
# number of degrees of freedom = 157
# baseline length = 7
# fit started from point 47
# estimated baseline 0.0732924 and standard error 0.000834676
# estimated delta 0.0623265 and standard error 0.00165936
# estimated tau 4.09915 and standard error 0.239297
# residual sum of squares: 142.371
# RSS per degree of freedom: 0.906823
# Probability of observing a larger of equal RSS per DOF under the null hypothesis: 0.792391

# rss per degree of freedom: 0.906823

# Time    Ca  Prediction  Residual
1930.02 0.0785974 0.0732924 1.24285
1930.12 0.0713634 0.0732924 -0.46542
1930.21 0.0770219 0.0732924 0.877059
1930.31 0.0750837 0.0732924 0.422601
1930.41 0.0744555 0.0732924 0.276636
1930.51 0.0663767 0.0732924 -1.71072
1930.61 0.0679096 0.0732924 -1.34234

1934.71 0.134443 0.135619 -0.20378
1934.81 0.137628 0.134117 0.598318
1934.91 0.129672 0.132651 -0.531909
1935.01 0.13704 0.13122 0.987012
1935.11 0.130108 0.129824 0.0504527
1935.21 0.135414 0.128462 1.19626
1935.31 0.135836 0.127132 1.51324
1935.41 0.122607 0.125835 -0.584497
1935.51 0.126958 0.124569 0.42983
1935.61 0.117661 0.123333 -1.05503
1935.71 0.120708 0.122127 -0.258586
1935.81 0.125926 0.12095 0.903132
1935.91 0.115489 0.119801 -0.814122
1936.01 0.111644 0.11868 -1.32311
1936.11 0.11549 0.117587 -0.398339
1936.21 0.124671 0.116519 1.48452
1936.31 0.115619 0.115477 0.0268497
1936.41 0.114488 0.114461 0.00533098
1936.51 0.106919 0.113468 -1.28139
1936.61 0.114824 0.1125 0.444086
1936.71 0.114781 0.111555 0.613095
1936.81 0.108636 0.110633 -0.39347
1936.91 0.110404 0.109733 0.131099
1937.01 0.108409 0.108855 -0.086247
1937.11 0.107321 0.107998 -0.133122
1937.21 0.107494 0.107162 0.0648296
1937.31 0.105594 0.106345 -0.149593
1937.41 0.0950792 0.105549 -2.19648
1937.51 0.103093 0.104771 -0.341941
1937.61 0.109352 0.104013 1.05011
1937.71 0.10428 0.103272 0.200758
1937.81 0.0979559 0.10255 -0.960405
1937.91 0.102423 0.101845 0.11743
1938.01 0.100036 0.101157 -0.229893
1938.11 0.101389 0.100485 0.18212
1938.21 0.102907 0.0998297 0.619808
1938.31 0.0979657 0.0991902 -0.255311
1938.41 0.0992146 0.098566 0.134062
1938.51 0.10325 0.0979569 1.06791
1938.61 0.0983299 0.0973625 0.199077
1938.71 0.0877332 0.0967824 -1.97197
1938.81 0.0853314 0.0962163 -2.41742
1938.91 0.102004 0.0956638 1.27297
1939.01 0.0939645 0.0951247 -0.246401
1939.11 0.09687 0.0945985 0.482215
1939.21 0.0978257 0.094085 0.778568
1939.31 0.0979881 0.0935839 0.92498
1939.41 0.0883876 0.0930949 -1.05269
1939.51 0.0844361 0.0926177 -1.80498
1939.61 0.0961696 0.0921519 0.84772
1939.71 0.0906676 0.0916974 -0.223004
1939.81 0.0868509 0.0912538 -0.964178
1939.91 0.0981023 0.090821 1.51449
1940.01 0.0839931 0.0903985 -1.43287
1940.11 0.0903373 0.0899863 0.0764777
1940.21 0.0936526 0.0895839 0.868161
1940.31 0.0866395 0.0891913 -0.565134
1940.41 0.0978636 0.0888082 1.88637
1940.51 0.0882801 0.0884342 -0.0334563
1940.61 0.0905222 0.0880693 0.529365
1940.71 0.0892124 0.0877132 0.325403
1940.81 0.0831485 0.0873656 -0.961735
1940.91 0.0889249 0.0870265 0.4053
1941.01 0.0857588 0.0866955 -0.207468
1941.11 0.0850953 0.0863725 -0.283192
1941.21 0.0884774 0.0860572 0.516918
1941.31 0.0828763 0.0857496 -0.646782
1941.41 0.0839203 0.0854494 -0.340643
1941.51 0.0902181 0.0851564 1.10862
1941.61 0.0871475 0.0848705 0.507099
1941.71 0.0825992 0.0845914 -0.445391
1941.81 0.0850529 0.0843191 0.166485
1941.91 0.0792983 0.0840534 -1.09008
1942.01 0.0846593 0.083794 0.194293
1942.11 0.0847546 0.083541 0.26927
1942.21 0.0813288 0.083294 -0.448548
1942.31 0.0825962 0.0830529 -0.103768
1942.41 0.0840024 0.0828177 0.270575
1942.51 0.0829406 0.0825881 0.0789168
1942.61 0.0807685 0.0823641 -0.358855
1942.71 0.0884852 0.0821455 1.39575
1942.81 0.0883456 0.0819321 1.41031
1942.91 0.0820179 0.0817239 0.0676991
1943.01 0.0860969 0.0815207 1.00319
1943.11 0.0813903 0.0813224 0.0157501
1943.21 0.0826497 0.0811289 0.343241
1943.31 0.0901292 0.08094 1.98282
1943.41 0.0761695 0.0807557 -1.05657
1943.51 0.0761232 0.0805758 -1.02512
1943.61 0.0860993 0.0804003 1.2743
1943.71 0.0777555 0.080229 -0.58007
1943.81 0.0864632 0.0800618 1.44608
1943.91 0.0755658 0.0798987 -1.00836
1944.01 0.073618 0.0797395 -1.47454
1944.11 0.0739581 0.0795841 -1.33775
1944.21 0.0814085 0.0794325 0.449518
1944.31 0.0852303 0.0792845 1.34016
1944.41 0.084556 0.0791401 1.22091
1944.51 0.0772684 0.0789992 -0.404536
1944.61 0.0775405 0.0788616 -0.305698
1944.71 0.0791 0.0787274 0.0871989
1944.81 0.0732669 0.0785964 -1.26128
1944.91 0.0870712 0.0784686 1.84985
1945.01 0.083278 0.0783439 1.11935
1945.11 0.0823686 0.0782221 0.950022
1945.21 0.0782997 0.0781033 0.0463056
1945.31 0.0810275 0.0779874 0.697628
1945.41 0.0725502 0.0778742 -1.28528
1945.51 0.0778893 0.0777638 0.0301598
1945.61 0.0771005 0.077656 -0.1301
1945.71 0.0783255 0.0775509 0.180274
1945.81 0.0709095 0.0774482 -1.5572
1945.91 0.081276 0.0773481 0.888788
1946.01 0.0785088 0.0772503 0.289792
1946.11 0.081346 0.077155 0.961381
1946.21 0.0756927 0.0770619 -0.33074
1946.31 0.0790199 0.076971 0.472213
1946.41 0.0778334 0.0768824 0.224475
1946.51 0.0738867 0.0767959 -0.682963
1946.61 0.0800983 0.0767114 0.789017
1946.71 0.0833144 0.076629 1.4971
1946.81 0.0796654 0.0765486 0.718137
1946.91 0.0696524 0.0764701 -1.66047
1947.01 0.0769984 0.0763936 0.140962
1947.11 0.0710485 0.0763188 -1.26455
1947.21 0.0788574 0.0762459 0.603288
1947.31 0.073053 0.0761747 -0.744326
1947.41 0.0697571 0.0761052 -1.54687
1947.51 0.0678149 0.0760374 -2.03878
1947.61 0.075612 0.0759713 -0.0842571
1947.71 0.0712663 0.0759067 -1.11056
1947.81 0.0800491 0.0758437 0.960367
1947.91 0.0788751 0.0757822 0.724639
1948.01 0.084247 0.0757222 1.94804
1948.11 0.0826121 0.0756637 1.59798
1948.21 0.0814023 0.0756065 1.34538
1948.31 0.0756746 0.0755508 0.028677
1948.41 0.0790777 0.0754963 0.839814
1948.51 0.0784921 0.0754432 0.719769
1948.61 0.0772279 0.0753914 0.432494
1948.71 0.0708387 0.0753408 -1.10129
1948.81 0.073609 0.0752914 -0.401134
1948.91 0.0756652 0.0752433 0.101068
1949.01 0.0761936 0.0751962 0.23261
1949.11 0.0754786 0.0751504 0.0770455
1949.21 0.0783426 0.0751056 0.755961
1949.31 0.0740486 0.0750619 -0.238325
1949.41 0.0722735 0.0750192 -0.661772
1949.51 0.0727282 0.0749776 -0.544832
1949.61 0.0773597 0.074937 0.564245
1949.71 0.0650882 0.0748974 -2.47197
1949.81 0.0698028 0.0748587 -1.23314
1949.91 0.0722865 0.074821 -0.61458
