# Data from DA_130523_E1.h5 stim 5
# Ratiometric estimator mono-exponential fit
# Fitted model Ca = baseline+delta*exp(-(t-t0)/tau)
# nobs = 168
# number of degrees of freedom = 165
# baseline length = 7
# fit started from point 39
# estimated baseline 0.107662 and standard error 0.00059211
# estimated delta 0.054783 and standard error 0.00167156
# estimated tau 3.25206 and standard error 0.189013
# residual sum of squares: 165.454
# RSS per degree of freedom: 1.00275
# Probability of observing a larger of equal RSS per DOF under the null hypothesis: 0.47541

# rss per degree of freedom: 1.00275

# Time    Ca  Prediction  Residual
4175.02 0.11234 0.107662 1.15603
4175.11 0.108746 0.107662 0.269442
4175.21 0.104869 0.107662 -0.713038
4175.31 0.10967 0.107662 0.498853
4175.41 0.108374 0.107662 0.179289
4175.51 0.113674 0.107662 1.45269
4175.61 0.109449 0.107662 0.445681

4178.91 0.161376 0.162445 -0.20425
4179.01 0.158041 0.160787 -0.529572
4179.11 0.160433 0.159178 0.245088
4179.21 0.150767 0.157618 -1.34609
4179.31 0.149447 0.156105 -1.34555
4179.41 0.157102 0.154638 0.482417
4179.51 0.148444 0.153216 -0.959713
4179.61 0.160599 0.151836 1.6609
4179.71 0.158808 0.150499 1.63158
4179.81 0.145149 0.149201 -0.840831
4179.91 0.155619 0.147944 1.52579
4180.01 0.148835 0.146724 0.424402
4180.11 0.143861 0.145541 -0.354105
4180.21 0.144457 0.144394 0.013121
4180.31 0.15038 0.143282 1.45739
4180.41 0.141231 0.142203 -0.203703
4180.51 0.138944 0.141157 -0.472418
4180.61 0.13286 0.140143 -1.59947
4180.71 0.145924 0.139159 1.4041
4180.81 0.141972 0.138205 0.799753
4180.91 0.138033 0.137281 0.160668
4181.01 0.139013 0.136384 0.54697
4181.11 0.137798 0.135514 0.498583
4181.21 0.131815 0.134671 -0.629769
4181.31 0.129043 0.133853 -1.07453
4181.41 0.134993 0.13306 0.426309
4181.51 0.130493 0.132291 -0.394343
4181.61 0.141656 0.131545 2.13683
4181.71 0.125082 0.130822 -1.29634
4181.81 0.134552 0.13012 0.976023
4181.91 0.126866 0.12944 -0.585044
4182.01 0.124569 0.128781 -0.950664
4182.11 0.126546 0.128141 -0.358071
4182.21 0.128517 0.127521 0.22236
4182.31 0.128802 0.12692 0.421728
4182.41 0.129003 0.126337 0.587072
4182.51 0.122002 0.125771 -0.886551
4182.61 0.126979 0.125223 0.402674
4182.71 0.132005 0.124691 1.60815
4182.81 0.122055 0.124175 -0.493884
4182.91 0.121071 0.123675 -0.606792
4183.01 0.122918 0.12319 -0.0630265
4183.11 0.121147 0.12272 -0.363468
4183.21 0.116831 0.122264 -1.28079
4183.31 0.121438 0.121822 -0.0897827
4183.41 0.126105 0.121393 1.06921
4183.51 0.120748 0.120978 -0.0524822
4183.61 0.121543 0.120574 0.224003
4183.71 0.121837 0.120183 0.381454
4183.81 0.121041 0.119804 0.288538
4183.91 0.116002 0.119437 -0.818659
4184.01 0.119531 0.11908 0.105251
4184.11 0.120174 0.118734 0.339709
4184.21 0.117695 0.118399 -0.16639
4184.31 0.115176 0.118074 -0.693158
4184.41 0.118501 0.117759 0.177903
4184.51 0.11537 0.117453 -0.501877
4184.61 0.115929 0.117156 -0.297271
4184.71 0.117596 0.116869 0.170545
4184.81 0.11615 0.11659 -0.105508
4184.91 0.108389 0.11632 -1.96179
4185.01 0.116227 0.116058 0.0405032
4185.11 0.11227 0.115803 -0.870332
4185.21 0.112058 0.115557 -0.851014
4185.31 0.123803 0.115318 1.97917
4185.41 0.107399 0.115086 -1.90496
4185.51 0.110602 0.114861 -1.03814
4185.61 0.117782 0.114643 0.741673
4185.71 0.120467 0.114432 1.4038
4185.81 0.113007 0.114227 -0.297807
4185.91 0.115999 0.114028 0.467285
4186.01 0.114161 0.113835 0.0789361
4186.11 0.11285 0.113648 -0.196323
4186.21 0.117071 0.113467 0.840326
4186.31 0.111204 0.113291 -0.511728
4186.41 0.106675 0.113121 -1.61333
4186.51 0.106538 0.112956 -1.62079
4186.61 0.110874 0.112795 -0.470527
4186.71 0.113456 0.11264 0.196638
4186.81 0.118597 0.112489 1.45937
4186.91 0.108503 0.112343 -0.954667
4187.01 0.116547 0.112201 1.04722
4187.11 0.112091 0.112064 0.00646867
4187.21 0.10766 0.111931 -1.06451
4187.31 0.113331 0.111801 0.373286
4187.41 0.109413 0.111676 -0.566369
4187.51 0.108274 0.111554 -0.823512
4187.61 0.115511 0.111437 0.961677
4187.71 0.116768 0.111322 1.31142
4187.81 0.109704 0.111211 -0.373917
4187.91 0.118416 0.111104 1.75828
4188.01 0.111762 0.111 0.182549
4188.11 0.115719 0.110899 1.16602
4188.21 0.112657 0.110801 0.453905
4188.31 0.115315 0.110706 1.09946
4188.41 0.105979 0.110614 -1.14485
4188.51 0.115944 0.110524 1.29156
4188.61 0.11891 0.110438 2.01735
4188.71 0.114534 0.110353 1.01345
4188.81 0.112686 0.110272 0.588141
4188.91 0.108118 0.110193 -0.515677
4189.01 0.107881 0.110116 -0.556253
4189.11 0.110422 0.110042 0.0936735
4189.21 0.111859 0.10997 0.46047
4189.31 0.109422 0.1099 -0.119464
4189.41 0.111888 0.109832 0.507575
4189.51 0.112498 0.109767 0.672049
4189.61 0.115921 0.109703 1.4804
4189.71 0.105947 0.109641 -0.927671
4189.81 0.107197 0.109581 -0.599266
4189.91 0.10495 0.109523 -1.12642
4190.01 0.115235 0.109467 1.37368
4190.11 0.107141 0.109412 -0.569695
4190.21 0.109038 0.109359 -0.080399
4190.31 0.106058 0.109308 -0.819078
4190.41 0.109529 0.109258 0.0674325
4190.51 0.115992 0.10921 1.65719
4190.61 0.117136 0.109163 1.91214
4190.71 0.108452 0.109117 -0.165515
4190.81 0.106577 0.109073 -0.616987
4190.91 0.110759 0.109031 0.427222
4191.01 0.0996897 0.108989 -2.37603
4191.11 0.106672 0.108949 -0.58125
4191.21 0.111863 0.10891 0.727685
4191.31 0.113709 0.108872 1.17984
4191.41 0.10768 0.108836 -0.291089
4191.51 0.108429 0.1088 -0.0913401
4191.61 0.110046 0.108766 0.318956
4191.71 0.103433 0.108732 -1.34639
4191.81 0.120085 0.1087 2.68075
4191.91 0.110155 0.108668 0.365289
4192.01 0.112694 0.108638 0.996444
4192.11 0.107374 0.108608 -0.308582
4192.21 0.111258 0.10858 0.664403
4192.31 0.104399 0.108552 -1.05261
4192.41 0.103121 0.108525 -1.36882
4192.51 0.110742 0.108499 0.551652
4192.61 0.102336 0.108474 -1.57369
4192.71 0.110012 0.108449 0.388803
4192.81 0.107536 0.108425 -0.221022
4192.91 0.112248 0.108402 0.942906
4193.01 0.110822 0.10838 0.603248
4193.11 0.10463 0.108358 -0.946143
4193.21 0.1045 0.108337 -0.975869
4193.31 0.1068 0.108317 -0.374142
4193.41 0.110096 0.108297 0.443804
4193.51 0.111444 0.108278 0.778921
4193.61 0.0956855 0.108259 -3.31487
4193.71 0.10751 0.108241 -0.182209
4193.81 0.104899 0.108223 -0.846573
4193.91 0.097822 0.108206 -2.75089
4194.01 0.108591 0.10819 0.0977959
4194.11 0.110015 0.108174 0.452223
4194.21 0.114424 0.108158 1.52327
4194.31 0.110396 0.108143 0.544115
4194.41 0.105063 0.108129 -0.779577
4194.51 0.109568 0.108115 0.358966
4194.61 0.105515 0.108101 -0.650478
4194.71 0.104195 0.108088 -0.99788
4194.81 0.111998 0.108075 0.957925
4194.91 0.102609 0.108062 -1.38702
