# Data from DA_130523_E1.h5 stim 4
# Ratiometric estimator mono-exponential fit
# Fitted model Ca = baseline+delta*exp(-(t-t0)/tau)
# nobs = 172
# number of degrees of freedom = 169
# baseline length = 7
# fit started from point 35
# estimated baseline 0.110938 and standard error 0.000539049
# estimated delta 0.0639525 and standard error 0.00226973
# estimated tau 2.44051 and standard error 0.141435
# residual sum of squares: 183.401
# RSS per degree of freedom: 1.08521
# Probability of observing a larger of equal RSS per DOF under the null hypothesis: 0.212404

# rss per degree of freedom: 1.08521

# Time    Ca  Prediction  Residual
3752.01 0.109227 0.110938 -0.375015
3752.11 0.107993 0.110938 -0.646191
3752.21 0.111249 0.110938 0.0679419
3752.31 0.115074 0.110938 0.877832
3752.41 0.112206 0.110938 0.274737
3752.51 0.11376 0.110938 0.607224
3752.61 0.113356 0.110938 0.527143

3755.51 0.161138 0.17489 -2.32245
3755.61 0.172592 0.172323 0.0429184
3755.71 0.17156 0.169858 0.273734
3755.81 0.172847 0.167493 0.856195
3755.91 0.16241 0.165222 -0.469954
3756.01 0.171661 0.163043 1.37775
3756.11 0.167354 0.160951 1.06624
3756.21 0.156459 0.158943 -0.418735
3756.31 0.159022 0.157016 0.344181
3756.41 0.154888 0.155166 -0.0482455
3756.51 0.147343 0.153391 -1.08006
3756.61 0.148593 0.151686 -0.555349
3756.71 0.152721 0.15005 0.4823
3756.81 0.145706 0.14848 -0.504254
3756.91 0.149653 0.146973 0.482562
3757.01 0.143503 0.145526 -0.368817
3757.11 0.146684 0.144137 0.472821
3757.21 0.141118 0.142805 -0.31616
3757.31 0.143476 0.141525 0.358639
3757.41 0.148081 0.140297 1.3965
3757.51 0.12804 0.139119 -2.18296
3757.61 0.139485 0.137987 0.280369
3757.71 0.139283 0.136901 0.445648
3757.81 0.134043 0.135859 -0.350383
3757.91 0.135712 0.134858 0.160832
3758.01 0.136117 0.133898 0.409533
3758.11 0.146396 0.132976 2.44821
3758.21 0.138212 0.132091 1.1453
3758.31 0.136756 0.131242 1.03225
3758.41 0.133888 0.130427 0.664482
3758.51 0.129314 0.129645 -0.0642593
3758.61 0.125254 0.128894 -0.727408
3758.71 0.134313 0.128173 1.18647
3758.81 0.131733 0.127481 0.834064
3758.91 0.124903 0.126817 -0.385957
3759.01 0.127016 0.126179 0.165175
3759.11 0.119963 0.125567 -1.14034
3759.21 0.129432 0.12498 0.873624
3759.31 0.120305 0.124416 -0.847986
3759.41 0.127273 0.123875 0.667126
3759.51 0.112235 0.123356 -2.4023
3759.61 0.11971 0.122857 -0.647983
3759.71 0.121188 0.122379 -0.243432
3759.81 0.119597 0.121919 -0.480955
3759.91 0.124218 0.121478 0.547163
3760.01 0.121832 0.121055 0.157791
3760.11 0.122577 0.120649 0.388514
3760.21 0.126361 0.120259 1.2165
3760.31 0.114132 0.119885 -1.22879
3760.41 0.112213 0.119526 -1.56369
3760.51 0.129809 0.119181 2.07853
3760.61 0.116534 0.11885 -0.483983
3760.71 0.122016 0.118532 0.702013
3760.81 0.111107 0.118228 -1.53458
3760.91 0.108525 0.117935 -2.04368
3761.01 0.116924 0.117654 -0.154272
3761.11 0.12283 0.117384 1.12305
3761.21 0.110414 0.117125 -1.44294
3761.31 0.10836 0.116877 -1.84486
3761.41 0.11305 0.116639 -0.773438
3761.51 0.122376 0.11641 1.18661
3761.61 0.119708 0.11619 0.746991
3761.71 0.110757 0.115979 -1.12909
3761.81 0.108374 0.115777 -1.61266
3761.91 0.116531 0.115583 0.200934
3762.01 0.12947 0.115396 2.8252
3762.11 0.115856 0.115217 0.136196
3762.21 0.119881 0.115045 1.00702
3762.31 0.11735 0.11488 0.527842
3762.41 0.113257 0.114722 -0.309071
3762.51 0.114703 0.11457 0.0281178
3762.61 0.108441 0.114424 -1.30424
3762.71 0.113126 0.114284 -0.245274
3762.81 0.114755 0.11415 0.128468
3762.91 0.117655 0.114021 0.748805
3763.01 0.110851 0.113897 -0.65479
3763.11 0.10845 0.113778 -1.18207
3763.21 0.111496 0.113664 -0.456648
3763.31 0.125059 0.113555 2.31274
3763.41 0.111055 0.11345 -0.514188
3763.51 0.121292 0.113349 1.65227
3763.61 0.105556 0.113252 -1.68705
3763.71 0.110193 0.113159 -0.636789
3763.81 0.114733 0.11307 0.351305
3763.91 0.112382 0.112985 -0.129996
3764.01 0.12194 0.112902 1.86102
3764.11 0.108803 0.112823 -0.861298
3764.21 0.119741 0.112748 1.44224
3764.31 0.117166 0.112675 0.949258
3764.41 0.107514 0.112605 -1.11967
3764.51 0.108579 0.112538 -0.866045
3764.61 0.113294 0.112474 0.173236
3764.71 0.112044 0.112412 -0.0797126
3764.81 0.108272 0.112353 -0.888308
3764.91 0.110591 0.112296 -0.375312
3765.01 0.109774 0.112242 -0.528841
3765.11 0.108782 0.11219 -0.74921
3765.21 0.11086 0.112139 -0.27698
3765.31 0.122235 0.112091 2.05733
3765.41 0.115066 0.112045 0.633631
3765.51 0.109401 0.112 -0.565544
3765.61 0.114092 0.111958 0.45711
3765.71 0.112209 0.111917 0.0629845
3765.81 0.110667 0.111877 -0.264283
3765.91 0.11545 0.11184 0.765731
3766.01 0.107898 0.111803 -0.861193
3766.11 0.119442 0.111769 1.61277
3766.21 0.107873 0.111735 -0.84695
3766.31 0.109664 0.111703 -0.448413
3766.41 0.115454 0.111673 0.807061
3766.51 0.106962 0.111643 -1.03834
3766.61 0.12629 0.111615 2.93013
3766.71 0.107342 0.111588 -0.939603
3766.81 0.106754 0.111562 -1.05261
3766.91 0.117826 0.111536 1.28306
3767.01 0.115245 0.111512 0.791576
3767.11 0.112948 0.111489 0.314781
3767.21 0.119819 0.111467 1.747
3767.31 0.108651 0.111446 -0.617488
3767.41 0.10716 0.111426 -0.955315
3767.51 0.107028 0.111406 -0.98175
3767.61 0.105643 0.111387 -1.2727
3767.71 0.113971 0.111369 0.557364
3767.81 0.114969 0.111352 0.761206
3767.91 0.10757 0.111335 -0.823553
3768.01 0.0996003 0.111319 -2.65793
3768.11 0.110081 0.111304 -0.268451
3768.21 0.112169 0.111289 0.192448
3768.31 0.103492 0.111275 -1.74581
3768.41 0.104223 0.111262 -1.59299
3768.51 0.111996 0.111249 0.158613
3768.61 0.113054 0.111236 0.389929
3768.71 0.114355 0.111224 0.664071
3768.81 0.109663 0.111213 -0.338875
3768.91 0.109229 0.111202 -0.433624
3769.01 0.11605 0.111191 1.02353
3769.11 0.112566 0.111181 0.296594
3769.21 0.114802 0.111171 0.77412
3769.31 0.116081 0.111162 1.04123
3769.41 0.109242 0.111153 -0.41529
3769.51 0.106843 0.111144 -0.960897
3769.61 0.111418 0.111136 0.0609118
3769.71 0.106702 0.111128 -0.977588
3769.81 0.124368 0.11112 2.69959
3769.91 0.114283 0.111113 0.682211
3770.01 0.114035 0.111106 0.627576
3770.11 0.113549 0.111099 0.526009
3770.21 0.11378 0.111093 0.572794
3770.31 0.102923 0.111086 -1.81778
3770.41 0.113111 0.11108 0.44097
3770.51 0.109852 0.111075 -0.267377
3770.61 0.116581 0.111069 1.16649
3770.71 0.109762 0.111064 -0.28619
3770.81 0.113336 0.111059 0.493078
3770.91 0.109268 0.111054 -0.394318
3771.01 0.103622 0.111049 -1.67362
3771.11 0.114159 0.111045 0.65429
3771.21 0.108288 0.111041 -0.600833
3771.31 0.109906 0.111036 -0.242875
3771.41 0.118268 0.111033 1.52527
3771.51 0.112643 0.111029 0.353187
3771.61 0.111806 0.111025 0.166807
3771.71 0.114531 0.111022 0.754937
3771.81 0.110791 0.111018 -0.0489631
3771.91 0.112985 0.111015 0.416574
