# Data from DA_130523_E1.h5 stim 3
# Ratiometric estimator mono-exponential fit
# Fitted model Ca = baseline+delta*exp(-(t-t0)/tau)
# nobs = 177
# number of degrees of freedom = 174
# baseline length = 7
# fit started from point 30
# estimated baseline 0.114153 and standard error 0.000617191
# estimated delta 0.0854548 and standard error 0.00306105
# estimated tau 2.30649 and standard error 0.125881
# residual sum of squares: 169.616
# RSS per degree of freedom: 0.974803
# Probability of observing a larger of equal RSS per DOF under the null hypothesis: 0.57973

# rss per degree of freedom: 0.974803

# Time    Ca  Prediction  Residual
3300.01 0.116207 0.114153 0.359655
3300.11 0.112567 0.114153 -0.282227
3300.21 0.129364 0.114153 2.56542
3300.31 0.118315 0.114153 0.713389
3300.41 0.113499 0.114153 -0.116442
3300.51 0.123208 0.114153 1.54398
3300.61 0.113342 0.114153 -0.144532

3303.01 0.196083 0.199608 -0.427028
3303.11 0.186867 0.195982 -1.12714
3303.21 0.19965 0.19251 0.853474
3303.31 0.181132 0.189186 -1.03721
3303.41 0.186952 0.186002 0.11781
3303.51 0.188377 0.182953 0.677045
3303.61 0.196128 0.180034 1.92946
3303.71 0.174885 0.177239 -0.314003
3303.81 0.184854 0.174562 1.31676
3303.91 0.174588 0.171999 0.336167
3304.01 0.161509 0.169545 -1.11411
3304.11 0.182317 0.167195 1.95188
3304.21 0.174155 0.164944 1.19836
3304.31 0.158647 0.162789 -0.602567
3304.41 0.158941 0.160725 -0.253402
3304.51 0.165503 0.158749 0.910575
3304.61 0.148685 0.156857 -1.21197
3304.71 0.145161 0.155045 -1.50705
3304.81 0.150915 0.15331 -0.355884
3304.91 0.14728 0.151649 -0.664249
3305.01 0.149159 0.150058 -0.13243
3305.11 0.147371 0.148534 -0.179689
3305.21 0.135365 0.147076 -1.8666
3305.31 0.135668 0.145679 -1.60584
3305.41 0.142018 0.144341 -0.354672
3305.51 0.147924 0.14306 0.728954
3305.61 0.140649 0.141834 -0.185691
3305.71 0.13702 0.140659 -0.572803
3305.81 0.149097 0.139535 1.43397
3305.91 0.143567 0.138458 0.776419
3306.01 0.143133 0.137426 0.863523
3306.11 0.127381 0.136439 -1.49655
3306.21 0.13777 0.135493 0.357353
3306.31 0.134343 0.134588 -0.0390067
3306.41 0.138219 0.133721 0.706512
3306.51 0.135778 0.132891 0.453648
3306.61 0.131831 0.132096 -0.0430611
3306.71 0.126551 0.131334 -0.794297
3306.81 0.140515 0.130605 1.55682
3306.91 0.144503 0.129907 2.26155
3307.01 0.132719 0.129239 0.563034
3307.11 0.127276 0.128599 -0.213649
3307.21 0.12208 0.127986 -0.996465
3307.31 0.12502 0.127399 -0.397045
3307.41 0.127035 0.126837 0.0327873
3307.51 0.124966 0.126299 -0.226518
3307.61 0.120654 0.125783 -0.874399
3307.71 0.120078 0.12529 -0.890209
3307.81 0.134705 0.124817 1.6163
3307.91 0.128944 0.124365 0.758718
3308.01 0.134363 0.123932 1.67548
3308.11 0.120492 0.123517 -0.517566
3308.21 0.120488 0.123119 -0.45073
3308.31 0.127475 0.122739 0.797041
3308.41 0.126468 0.122375 0.686715
3308.51 0.119692 0.122026 -0.399253
3308.61 0.130103 0.121692 1.39872
3308.71 0.122043 0.121372 0.115265
3308.81 0.126393 0.121066 0.894753
3308.91 0.121723 0.120772 0.160743
3309.01 0.119975 0.120492 -0.0892951
3309.11 0.130149 0.120223 1.6645
3309.21 0.115942 0.119965 -0.706679
3309.31 0.121236 0.119718 0.262103
3309.41 0.116916 0.119482 -0.457587
3309.51 0.118523 0.119256 -0.125982
3309.61 0.108402 0.11904 -1.98681
3309.71 0.113132 0.118832 -1.01497
3309.81 0.117635 0.118634 -0.175696
3309.91 0.113629 0.118444 -0.851475
3310.01 0.12854 0.118262 1.72191
3310.11 0.128361 0.118087 1.74282
3310.21 0.121019 0.11792 0.530684
3310.31 0.116712 0.117761 -0.187702
3310.41 0.118662 0.117608 0.181473
3310.51 0.105879 0.117461 -2.12165
3310.61 0.112167 0.117321 -0.915936
3310.71 0.119191 0.117186 0.342519
3310.81 0.11181 0.117058 -0.943871
3310.91 0.11613 0.116934 -0.139914
3311.01 0.112576 0.116816 -0.756289
3311.11 0.123405 0.116703 1.14889
3311.21 0.115669 0.116595 -0.161628
3311.31 0.111395 0.116491 -0.922928
3311.41 0.116943 0.116392 0.0960331
3311.51 0.120875 0.116297 0.802644
3311.61 0.114398 0.116206 -0.320943
3311.71 0.108761 0.116119 -1.33424
3311.81 0.113577 0.116036 -0.442406
3311.91 0.114594 0.115956 -0.240282
3312.01 0.114287 0.115879 -0.284608
3312.11 0.113339 0.115806 -0.44314
3312.21 0.108518 0.115736 -1.31287
3312.31 0.121096 0.115669 0.944262
3312.41 0.111642 0.115605 -0.718831
3312.51 0.121945 0.115543 1.097
3312.61 0.109597 0.115484 -1.0617
3312.71 0.108598 0.115428 -1.25387
3312.81 0.119876 0.115373 0.78381
3312.91 0.117314 0.115322 0.353429
3313.01 0.113189 0.115272 -0.369796
3313.11 0.115392 0.115225 0.0298109
3313.21 0.105912 0.115179 -1.70071
3313.31 0.120141 0.115136 0.862217
3313.41 0.122627 0.115094 1.27506
3313.51 0.115498 0.115054 0.0788382
3313.61 0.121808 0.115016 1.18186
3313.71 0.120633 0.114979 0.991634
3313.81 0.118435 0.114944 0.621928
3313.91 0.111056 0.114911 -0.696111
3314.01 0.11168 0.114878 -0.5801
3314.11 0.116501 0.114848 0.298288
3314.21 0.114391 0.114818 -0.0754798
3314.31 0.115083 0.11479 0.0524925
3314.41 0.10795 0.114763 -1.25843
3314.51 0.105362 0.114737 -1.76874
3314.61 0.11928 0.114712 0.783867
3314.71 0.125006 0.114689 1.76431
3314.81 0.115066 0.114666 0.0713195
3314.91 0.102778 0.114644 -2.21645
3315.01 0.118128 0.114623 0.604479
3315.11 0.115976 0.114603 0.249283
3315.21 0.11597 0.114584 0.250561
3315.31 0.116899 0.114566 0.419264
3315.41 0.120881 0.114548 1.10827
3315.51 0.116311 0.114532 0.326214
3315.61 0.11069 0.114516 -0.70109
3315.71 0.115179 0.1145 0.120814
3315.81 0.112849 0.114485 -0.287855
3315.91 0.110383 0.114471 -0.751376
3316.01 0.116583 0.114458 0.374384
3316.11 0.115469 0.114445 0.182043
3316.21 0.110888 0.114433 -0.644143
3316.31 0.11483 0.114421 0.0730118
3316.41 0.113932 0.114409 -0.0857228
3316.51 0.113786 0.114398 -0.10875
3316.61 0.116957 0.114388 0.462847
3316.71 0.112725 0.114378 -0.295094
3316.81 0.122541 0.114369 1.39764
3316.91 0.108492 0.114359 -1.06805
3317.01 0.108493 0.114351 -1.08703
3317.11 0.107086 0.114342 -1.35237
3317.21 0.127197 0.114334 2.18946
3317.31 0.11093 0.114327 -0.615671
3317.41 0.122937 0.114319 1.45452
3317.51 0.116977 0.114312 0.478627
3317.61 0.119907 0.114305 0.982089
3317.71 0.116565 0.114299 0.404888
3317.81 0.119949 0.114293 0.99174
3317.91 0.105273 0.114287 -1.69011
3318.01 0.105876 0.114281 -1.57477
3318.11 0.103946 0.114276 -1.96616
3318.21 0.114811 0.114271 0.0969563
3318.31 0.10192 0.114266 -2.28383
3318.41 0.106986 0.114261 -1.32897
3318.51 0.113885 0.114256 -0.0663945
3318.61 0.115668 0.114252 0.253077
3318.71 0.126481 0.114248 2.07286
3318.81 0.114536 0.114244 0.051949
3318.91 0.117538 0.11424 0.583074
3319.01 0.117057 0.114236 0.501664
3319.11 0.112592 0.114233 -0.293996
3319.21 0.118441 0.114229 0.734191
3319.31 0.109806 0.114226 -0.793175
3319.41 0.119545 0.114223 0.919639
3319.51 0.115567 0.11422 0.23571
3319.61 0.119814 0.114217 0.97497
3319.71 0.114227 0.114214 0.00221953
3319.81 0.110573 0.114212 -0.667012
3319.91 0.117946 0.114209 0.650736
