# Data from data_paper/data_beta_escin/DA_121219_E1.h5 stim 3
# Ratiometric estimator mono-exponential fit
# Fitted model Ca = baseline+delta*exp(-(t-t0)/tau)
# nobs = 163
# number of degrees of freedom = 160
# baseline length = 15
# fit started from point 52
# estimated baseline 0.0499656 and standard error 0.000388917
# estimated delta 0.0561071 and standard error 0.000826757
# estimated tau 4.35681 and standard error 0.130141
# residual sum of squares: 157.6
# RSS per degree of freedom: 0.984997
# Probability of observing a larger of equal RSS per DOF under the null hypothesis: 0.538851

# rss per degree of freedom: 0.984997

# Time    Ca  Prediction  Residual
3450.01 0.0506885 0.0499656 0.352997
3450.11 0.0487195 0.0499656 -0.609651
3450.21 0.0470912 0.0499656 -1.42422
3450.31 0.0467452 0.0499656 -1.5866
3450.41 0.0493587 0.0499656 -0.296204
3450.51 0.0499604 0.0499656 -0.00257721
3450.61 0.0460846 0.0499656 -1.94867
3450.71 0.0506029 0.0499656 0.309002
3450.81 0.0490334 0.0499656 -0.456789
3450.91 0.0467389 0.0499656 -1.60737
3451.01 0.0519356 0.0499656 0.938205
3451.11 0.0451301 0.0499656 -2.41662
3451.21 0.0498306 0.0499656 -0.0660204
3451.31 0.0504274 0.0499656 0.223765
3451.41 0.048378 0.0499656 -0.779446

3455.21 0.103693 0.106073 -0.809762
3455.31 0.104973 0.1048 0.0589189
3455.41 0.0995994 0.103555 -1.36519
3455.51 0.105786 0.102339 1.1676
3455.61 0.101428 0.101151 0.0941536
3455.71 0.103758 0.0999895 1.27656
3455.81 0.100452 0.0988544 0.554639
3455.91 0.104023 0.0977451 2.10216
3456.01 0.0992182 0.0966609 0.876792
3456.11 0.0923191 0.0956013 -1.19888
3456.21 0.09444 0.0945658 -0.0446368
3456.31 0.0912955 0.0935538 -0.825041
3456.41 0.0972346 0.0925647 1.64523
3456.51 0.0897382 0.0915981 -0.677827
3456.61 0.0931229 0.0906534 0.887323
3456.71 0.0904444 0.0897301 0.261736
3456.81 0.0896211 0.0888278 0.295007
3456.91 0.086853 0.087946 -0.409629
3457.01 0.0879679 0.0870842 0.327251
3457.11 0.0874735 0.0862419 0.45661
3457.21 0.0881708 0.0854188 1.01409
3457.31 0.0837703 0.0846143 -0.320422
3457.41 0.0811753 0.0838281 -1.01832
3457.51 0.0810075 0.0830597 -0.808114
3457.61 0.0815533 0.0823087 -0.293236
3457.71 0.0805643 0.0815748 -0.393075
3457.81 0.0759136 0.0808576 -1.99764
3457.91 0.0828613 0.0801566 1.03402
3458.01 0.0765935 0.0794716 -1.14731
3458.11 0.0797077 0.078802 0.353054
3458.21 0.0797259 0.0781477 0.616127
3458.31 0.0777452 0.0775082 0.0942185
3458.41 0.073936 0.0768832 -1.20424
3458.51 0.076182 0.0762724 -0.0357599
3458.61 0.0703064 0.0756755 -2.23935
3458.71 0.0750826 0.0750921 -0.0038486
3458.81 0.0754042 0.074522 0.355112
3458.91 0.0740789 0.0739648 0.0462432
3459.01 0.073592 0.0734202 0.0705225
3459.11 0.0738063 0.072888 0.380727
3459.21 0.0729106 0.0723679 0.222378
3459.31 0.0737291 0.0718595 0.763293
3459.41 0.0732829 0.0713627 0.801426
3459.51 0.0757359 0.0708772 1.94178
3459.61 0.0683842 0.0704027 -0.870001
3459.71 0.0699908 0.0699389 0.0214526
3459.81 0.0707623 0.0694857 0.533402
3459.91 0.0690119 0.0690428 -0.0130919
3460.01 0.0622687 0.0686099 -2.80575
3460.11 0.0693771 0.0681869 0.507845
3460.21 0.0708783 0.0677734 1.30524
3460.31 0.0657883 0.0673693 -0.689527
3460.41 0.0677094 0.0669744 0.308591
3460.51 0.0637824 0.0665885 -1.21692
3460.61 0.0644121 0.0662113 -0.776656
3460.71 0.0680899 0.0658426 0.947886
3460.81 0.0683335 0.0654824 1.21325
3460.91 0.0617085 0.0651303 -1.50128
3461.01 0.0626549 0.0647862 -0.94102
3461.11 0.0638236 0.0644499 -0.276019
3461.21 0.06384 0.0641212 -0.120376
3461.31 0.0626262 0.0638 -0.517588
3461.41 0.0642113 0.0634861 0.315195
3461.51 0.0612571 0.0631793 -0.861408
3461.61 0.0622767 0.0628795 -0.263565
3461.71 0.0604301 0.0625864 -0.960852
3461.81 0.059214 0.0623 -1.39493
3461.91 0.0634988 0.0620202 0.650662
3462.01 0.0623077 0.0617466 0.250377
3462.11 0.0616223 0.0614793 0.0626655
3462.21 0.0599399 0.061218 -0.570113
3462.31 0.0580467 0.0609627 -1.33117
3462.41 0.0612439 0.0607132 0.239137
3462.51 0.0641604 0.0604693 1.61535
3462.61 0.058855 0.060231 -0.612883
3462.71 0.0595374 0.059998 -0.209423
3462.81 0.0583985 0.0597704 -0.623488
3462.91 0.062981 0.0595479 1.54696
3463.01 0.0598653 0.0593305 0.238645
3463.11 0.0596071 0.059118 0.225225
3463.21 0.0550471 0.0589103 -1.79421
3463.31 0.0586173 0.0587073 -0.0405858
3463.41 0.0624102 0.058509 1.6966
3463.51 0.05908 0.0583151 0.343203
3463.61 0.0575762 0.0581257 -0.252866
3463.71 0.055593 0.0579405 -1.09742
3463.81 0.0553794 0.0577595 -1.12169
3463.91 0.0564478 0.0575827 -0.522861
3464.01 0.0551185 0.0574098 -1.06864
3464.11 0.0532087 0.0572409 -1.91196
3464.21 0.0553718 0.0570758 -0.794401
3464.31 0.0614133 0.0569145 2.04519
3464.41 0.0551022 0.0567568 -0.773117
3464.51 0.0586234 0.0566027 0.927271
3464.61 0.0565967 0.0564521 0.0661971
3464.71 0.0608982 0.0563049 2.0739
3464.81 0.056786 0.0561611 0.28804
3464.91 0.0583198 0.0560205 1.03185
3465.01 0.0583037 0.0558831 1.0966
3465.11 0.0541095 0.0557488 -0.772136
3465.21 0.057602 0.0556176 0.924649
3465.31 0.0571678 0.0554894 0.776551
3465.41 0.0559098 0.055364 0.254822
3465.51 0.0538244 0.0552415 -0.679254
3465.61 0.0570059 0.0551218 0.870828
3465.71 0.0559978 0.0550048 0.463301
3465.81 0.0552577 0.0548905 0.168429
3465.91 0.0558402 0.0547787 0.492161
3466.01 0.0545372 0.0546695 -0.0610528
3466.11 0.0542223 0.0545628 -0.163293
3466.21 0.0517728 0.0544585 -1.29635
3466.31 0.0568466 0.0543565 1.15381
3466.41 0.0553363 0.0542569 0.504568
3466.51 0.0519647 0.0541595 -1.03419
3466.61 0.0507388 0.0540643 -1.60452
3466.71 0.0555916 0.0539713 0.750967
3466.81 0.0547066 0.0538804 0.385089
3466.91 0.0542216 0.0537916 0.203004
3467.01 0.0541136 0.0537048 0.19188
3467.11 0.055697 0.0536199 0.969961
3467.21 0.0548022 0.053537 0.592734
3467.31 0.0569178 0.053456 1.60999
3467.41 0.0518315 0.0533768 -0.73692
3467.51 0.0532732 0.0532994 -0.0124024
3467.61 0.0537928 0.0532237 0.267898
3467.71 0.056446 0.0531498 1.52575
3467.81 0.0525073 0.0530776 -0.270578
3467.91 0.0552558 0.0530069 1.04742
3468.01 0.0563818 0.0529379 1.59683
3468.11 0.0522194 0.0528705 -0.312166
3468.21 0.0529198 0.0528046 0.0548764
3468.31 0.0527596 0.0527402 0.00909904
3468.41 0.052006 0.0526772 -0.319185
3468.51 0.0544483 0.0526157 0.863708
3468.61 0.0533365 0.0525555 0.369649
3468.71 0.0526995 0.0524968 0.0968672
3468.81 0.050228 0.0524393 -1.07228
3468.91 0.0531853 0.0523832 0.383767
3469.01 0.0540033 0.0523283 0.777812
3469.11 0.0526476 0.0522747 0.175313
3469.21 0.0565952 0.0522223 2.01093
3469.31 0.0577048 0.0521711 2.49118
3469.41 0.0522366 0.0521211 0.0550765
3469.51 0.0541931 0.0520722 1.00227
3469.61 0.0499384 0.0520244 -1.00535
3469.71 0.0557059 0.0519777 1.74155
3469.81 0.0518699 0.051932 -0.0297544
3469.91 0.0516287 0.0518874 -0.12257
