# Data from data_paper/data_beta_escin/DA_121219_E1.h5 stim 1
# Ratiometric estimator mono-exponential fit
# Fitted model Ca = baseline+delta*exp(-(t-t0)/tau)
# nobs = 181
# number of degrees of freedom = 178
# baseline length = 15
# fit started from point 34
# estimated baseline 0.058857 and standard error 0.000547938
# estimated delta 0.113819 and standard error 0.00339631
# estimated tau 2.33918 and standard error 0.0947737
# residual sum of squares: 127.571
# RSS per degree of freedom: 0.716693
# Probability of observing a larger of equal RSS per DOF under the null hypothesis: 0.998365

# rss per degree of freedom: 0.716693

# Time    Ca  Prediction  Residual
2280.01 0.0585743 0.058857 -0.0566974
2280.11 0.0580705 0.058857 -0.156133
2280.21 0.0561132 0.058857 -0.550315
2280.31 0.0548411 0.058857 -0.804524
2280.41 0.0554093 0.058857 -0.700196
2280.51 0.0589191 0.058857 0.0123051
2280.61 0.0557962 0.058857 -0.614226
2280.71 0.0620439 0.058857 0.623013
2280.81 0.0575243 0.058857 -0.267496
2280.91 0.0517568 0.058857 -1.45376
2281.01 0.0626427 0.058857 0.729895
2281.11 0.0571027 0.058857 -0.344493
2281.21 0.0597102 0.058857 0.171683
2281.31 0.0581174 0.058857 -0.146959
2281.41 0.0572532 0.058857 -0.325956

2283.41 0.181711 0.172676 0.860624
2283.51 0.174227 0.167913 0.62588
2283.61 0.16706 0.163349 0.382379
2283.71 0.146444 0.158976 -1.45742
2283.81 0.154281 0.154786 -0.0566039
2283.91 0.150905 0.150772 0.0146598
2284.01 0.150669 0.146925 0.430665
2284.11 0.152291 0.14324 1.00474
2284.21 0.147591 0.139708 0.897005
2284.31 0.134523 0.136325 -0.221576
2284.41 0.148358 0.133083 1.73178
2284.51 0.122938 0.129977 -0.934162
2284.61 0.134919 0.127 0.959605
2284.71 0.124274 0.124148 0.0167048
2284.81 0.127658 0.121416 0.789498
2284.91 0.112825 0.118798 -0.821988
2285.01 0.108933 0.11629 -1.05107
2285.11 0.11272 0.113886 -0.164416
2285.21 0.100228 0.111583 -1.72509
2285.31 0.0973199 0.109377 -1.86669
2285.41 0.106848 0.107262 -0.0596163
2285.51 0.10035 0.105237 -0.734741
2285.61 0.102452 0.103296 -0.125834
2285.71 0.104896 0.101436 0.51602
2285.81 0.0957167 0.0996542 -0.616769
2285.91 0.0893319 0.0979468 -1.35233
2286.01 0.0991106 0.096311 0.428797
2286.11 0.0889877 0.0947435 -0.927443
2286.21 0.0940185 0.0932417 0.121734
2286.31 0.0924029 0.0918028 0.0956752
2286.41 0.0942822 0.090424 0.612546
2286.51 0.0944441 0.089103 0.815518
2286.61 0.0840559 0.0878372 -0.630026
2286.71 0.0830623 0.0866244 -0.605262
2286.81 0.0930414 0.0854624 1.20459
2286.91 0.0822792 0.084349 -0.359216
2287.01 0.0793626 0.0832821 -0.673992
2287.11 0.075716 0.08226 -1.15922
2287.21 0.0877666 0.0812806 1.04226
2287.31 0.0901486 0.0803422 1.56051
2287.41 0.0867919 0.079443 1.20794
2287.51 0.0747969 0.0785815 -0.673229
2287.61 0.0829399 0.0777561 0.869194
2287.71 0.0739819 0.0769652 -0.529564
2287.81 0.0814873 0.0762074 0.9047
2287.91 0.0756625 0.0754813 0.032551
2288.01 0.080302 0.0747856 0.944792
2288.11 0.0802907 0.074119 1.0707
2288.21 0.074703 0.0734803 0.21774
2288.31 0.0766175 0.0728683 0.658941
2288.41 0.0754374 0.0722819 0.558451
2288.51 0.0677339 0.0717201 -0.737852
2288.61 0.0700345 0.0711818 -0.211162
2288.71 0.0785328 0.070666 1.35184
2288.81 0.0711023 0.0701718 0.168758
2288.91 0.0665944 0.0696983 -0.584612
2289.01 0.0646763 0.0692446 -0.876206
2289.11 0.0749085 0.0688099 1.07755
2289.21 0.0608887 0.0683934 -1.48662
2289.31 0.0707642 0.0679943 0.509816
2289.41 0.0683746 0.0676119 0.14351
2289.51 0.0621636 0.0672455 -0.970462
2289.61 0.0620995 0.0668945 -0.92872
2289.71 0.067675 0.0665581 0.209898
2289.81 0.0741744 0.0662358 1.39523
2289.91 0.0621529 0.065927 -0.731802
2290.01 0.0635052 0.0656311 -0.409283
2290.11 0.0660318 0.0653477 0.130363
2290.21 0.0667933 0.065076 0.325289
2290.31 0.0694844 0.0648158 0.87818
2290.41 0.0654528 0.0645664 0.168213
2290.51 0.0651626 0.0643275 0.161363
2290.61 0.0658953 0.0640985 0.340081
2290.71 0.0669535 0.0638792 0.585135
2290.81 0.0671552 0.063669 0.657162
2290.91 0.0642453 0.0634676 0.147853
2291.01 0.0594215 0.0632747 -0.760558
2291.11 0.0614032 0.0630898 -0.335437
2291.21 0.0648675 0.0629127 0.367437
2291.31 0.0576721 0.0627429 -1.02762
2291.41 0.0595595 0.0625803 -0.593358
2291.51 0.0583397 0.0624245 -0.815799
2291.61 0.0578873 0.0622752 -0.872757
2291.71 0.0686598 0.0621321 1.22009
2291.81 0.0681772 0.0619951 1.15023
2291.91 0.0635117 0.0618638 0.32157
2292.01 0.0698947 0.0617379 1.52117
2292.11 0.0717018 0.0616174 1.84596
2292.21 0.0676981 0.0615018 1.1606
2292.31 0.0530291 0.0613912 -1.77566
2292.41 0.062586 0.0612851 0.252926
2292.51 0.0549589 0.0611835 -1.27025
2292.61 0.0664525 0.0610861 0.986982
2292.71 0.0577423 0.0609928 -0.649712
2292.81 0.0609543 0.0609035 0.00997085
2292.91 0.0630278 0.0608178 0.433766
2293.01 0.0632564 0.0607358 0.487093
2293.11 0.0619801 0.0606571 0.261174
2293.21 0.0577108 0.0605818 -0.579332
2293.31 0.0602846 0.0605096 -0.044526
2293.41 0.0598368 0.0604405 -0.1205
2293.51 0.0599382 0.0603742 -0.0867609
2293.61 0.0631556 0.0603107 0.566362
2293.71 0.0586169 0.0602499 -0.32435
2293.81 0.0630469 0.0601916 0.558306
2293.91 0.0614044 0.0601357 0.250575
2294.01 0.0600327 0.0600822 -0.00991528
2294.11 0.061776 0.0600309 0.340646
2294.21 0.062222 0.0599818 0.439496
2294.31 0.0629837 0.0599347 0.601627
2294.41 0.05981 0.0598896 -0.0157037
2294.51 0.0625418 0.0598464 0.527302
2294.61 0.0526836 0.059805 -1.45654
2294.71 0.058355 0.0597653 -0.284126
2294.81 0.0627741 0.0597273 0.587367
2294.91 0.0553423 0.0596909 -0.87751
2295.01 0.0562992 0.059656 -0.680061
2295.11 0.0447716 0.0596226 -3.23286
2295.21 0.0656861 0.0595905 1.19054
2295.31 0.0561586 0.0595598 -0.693768
2295.41 0.0551487 0.0595304 -0.913924
2295.51 0.061549 0.0595022 0.410911
2295.61 0.0637133 0.0594752 0.818495
2295.71 0.0701464 0.0594494 1.9713
2295.81 0.0568089 0.0594246 -0.525797
2295.91 0.0566808 0.0594008 -0.547752
2296.01 0.0603589 0.0593781 0.195507
2296.11 0.0591263 0.0593562 -0.045829
2296.21 0.0656227 0.0593354 1.22498
2296.31 0.0637312 0.0593153 0.880453
2296.41 0.0607782 0.0592962 0.292921
2296.51 0.0634839 0.0592778 0.81204
2296.61 0.0514334 0.0592602 -1.64888
2296.71 0.0645462 0.0592433 1.0323
2296.81 0.0597295 0.0592271 0.099395
2296.91 0.0590094 0.0592116 -0.0410894
2297.01 0.0633107 0.0591968 0.816169
2297.11 0.0621386 0.0591826 0.585627
2297.21 0.0684656 0.0591689 1.75501
2297.31 0.0581366 0.0591559 -0.20999
2297.41 0.0578249 0.0591434 -0.266431
2297.51 0.0497446 0.0591314 -2.03366
2297.61 0.059877 0.0591199 0.15181
2297.71 0.056108 0.0591089 -0.614972
2297.81 0.0672549 0.0590984 1.54886
2297.91 0.0591125 0.0590883 0.0049211
2298.01 0.0644445 0.0590786 1.05359
2298.11 0.055334 0.0590693 -0.769633
2298.21 0.0600742 0.0590604 0.201667
2298.31 0.0571158 0.0590519 -0.391677
2298.41 0.0527502 0.0590438 -1.32018
2298.51 0.0575847 0.0590359 -0.298051
2298.61 0.0605522 0.0590285 0.309009
2298.71 0.0631433 0.0590213 0.829219
2298.81 0.061308 0.0590144 0.464291
2298.91 0.058426 0.0590078 -0.119335
2299.01 0.0568272 0.0590015 -0.437886
2299.11 0.0600073 0.0589955 0.20265
2299.21 0.0571064 0.0589897 -0.384683
2299.31 0.0646667 0.0589841 1.08429
2299.41 0.0585492 0.0589788 -0.0870895
2299.51 0.0603199 0.0589737 0.271221
2299.61 0.0591423 0.0589688 0.0352952
2299.71 0.0552356 0.0589641 -0.769844
2299.81 0.0555879 0.0589596 -0.701164
2299.91 0.0580844 0.0589553 -0.177216
