# Data from data_paper/data_beta_escin/DA_121219_E1.h5 stim 2
# Ratiometric estimator mono-exponential fit
# Fitted model Ca = baseline+delta*exp(-(t-t0)/tau)
# nobs = 173
# number of degrees of freedom = 170
# baseline length = 15
# fit started from point 42
# estimated baseline 0.0530034 and standard error 0.000379632
# estimated delta 0.0797495 and standard error 0.00143484
# estimated tau 3.07388 and standard error 0.0906272
# residual sum of squares: 168.221
# RSS per degree of freedom: 0.989537
# Probability of observing a larger of equal RSS per DOF under the null hypothesis: 0.524164

# rss per degree of freedom: 0.989537

# Time    Ca  Prediction  Residual
2830.01 0.0504706 0.0530034 -0.929122
2830.11 0.0531824 0.0530034 0.0639442
2830.21 0.0454172 0.0530034 -2.8652
2830.31 0.0466744 0.0530034 -2.34724
2830.41 0.054658 0.0530034 0.58864
2830.51 0.0583309 0.0530034 1.8499
2830.61 0.053892 0.0530034 0.317051
2830.71 0.0554407 0.0530034 0.862657
2830.81 0.0481011 0.0530034 -1.82199
2830.91 0.058736 0.0530034 1.98591
2831.01 0.0491906 0.0530034 -1.38101
2831.11 0.0583917 0.0530034 1.85142
2831.21 0.0482883 0.0530034 -1.73756
2831.31 0.0524517 0.0530034 -0.19717
2831.41 0.0468556 0.0530034 -2.29947

2834.21 0.12597 0.132753 -1.50903
2834.31 0.133774 0.1302 0.773794
2834.41 0.125494 0.127729 -0.500871
2834.51 0.129585 0.125337 0.925657
2834.61 0.120585 0.123022 -0.554074
2834.71 0.123061 0.120781 0.529957
2834.81 0.124813 0.118611 1.41388
2834.91 0.11223 0.116511 -1.03732
2835.01 0.116072 0.114479 0.378074
2835.11 0.110956 0.112511 -0.387041
2835.21 0.113312 0.110606 0.653389
2835.31 0.111923 0.108762 0.772902
2835.41 0.106313 0.106977 -0.16594
2835.51 0.109699 0.10525 1.0993
2835.61 0.103506 0.103577 -0.0181537
2835.71 0.102112 0.101959 0.0393547
2835.81 0.0991045 0.100392 -0.339445
2835.91 0.100401 0.0988748 0.395984
2836.01 0.0925207 0.0974065 -1.30415
2836.11 0.100417 0.0959852 1.15343
2836.21 0.0920191 0.0946094 -0.706046
2836.31 0.0965841 0.0932777 0.881696
2836.41 0.0915215 0.0919886 -0.128692
2836.51 0.0883322 0.0907407 -0.668514
2836.61 0.0865841 0.0895328 -0.82429
2836.71 0.0865111 0.0883635 -0.523965
2836.81 0.0900312 0.0872317 0.781382
2836.91 0.0854361 0.0861361 -0.202253
2837.01 0.089751 0.0850755 1.29353
2837.11 0.084485 0.0840489 0.125494
2837.21 0.0791288 0.0830552 -1.14748
2837.31 0.0799777 0.0820933 -0.617457
2837.41 0.0831047 0.0811622 0.556341
2837.51 0.0814496 0.0802608 0.354628
2837.61 0.0781244 0.0793884 -0.38135
2837.71 0.0816993 0.0785438 0.920796
2837.81 0.0740249 0.0777263 -1.13575
2837.91 0.0793524 0.0769349 0.725712
2838.01 0.071831 0.0761689 -1.33815
2838.11 0.0754188 0.0754274 -0.00262298
2838.21 0.0727554 0.0747097 -0.603251
2838.31 0.0756895 0.0740149 0.514435
2838.41 0.0732137 0.0733423 -0.0403848
2838.51 0.0665522 0.0726913 -1.98839
2838.61 0.0734523 0.0720611 0.430116
2838.71 0.0696694 0.0714511 -0.563352
2838.81 0.0736173 0.0708606 0.853128
2838.91 0.0684713 0.070289 -0.575002
2839.01 0.0715044 0.0697357 0.556092
2839.11 0.0652966 0.0692001 -1.2882
2839.21 0.0693271 0.0686817 0.205162
2839.31 0.0708854 0.0681799 0.859387
2839.41 0.0698849 0.0676941 0.703405
2839.51 0.0659632 0.0672238 -0.404437
2839.61 0.0673832 0.0667687 0.202567
2839.71 0.063955 0.0663281 -0.780919
2839.81 0.0695109 0.0659015 1.15357
2839.91 0.0617843 0.0654887 -1.23949
2840.01 0.0674378 0.065089 0.770855
2840.11 0.0641899 0.0647022 -0.172153
2840.21 0.0599144 0.0643277 -1.51187
2840.31 0.0656743 0.0639653 0.567854
2840.41 0.0619369 0.0636144 -0.563028
2840.51 0.0611675 0.0632747 -0.706883
2840.61 0.060688 0.062946 -0.764661
2840.71 0.0637266 0.0626277 0.366377
2840.81 0.0645448 0.0623196 0.739567
2840.91 0.0631634 0.0620214 0.377321
2841.01 0.0614594 0.0617328 -0.0917885
2841.11 0.0612648 0.0614534 -0.0640718
2841.21 0.0579354 0.0611829 -1.09963
2841.31 0.0586425 0.0609211 -0.785802
2841.41 0.0633005 0.0606676 0.872713
2841.51 0.0612048 0.0604223 0.267504
2841.61 0.064203 0.0601848 1.34168
2841.71 0.0634581 0.059955 1.16056
2841.81 0.0617751 0.0597325 0.69393
2841.91 0.0605088 0.0595171 0.3379
2842.01 0.0604672 0.0593086 0.395577
2842.11 0.0544441 0.0591068 -1.62427
2842.21 0.053173 0.0589114 -2.03934
2842.31 0.0597025 0.0587223 0.335859
2842.41 0.0559422 0.0585392 -0.914632
2842.51 0.0594597 0.058362 0.373744
2842.61 0.060985 0.0581905 0.939789
2842.71 0.0600804 0.0580245 0.701533
2842.81 0.0594208 0.0578638 0.537506
2842.91 0.0549506 0.0577082 -0.986284
2843.01 0.0596139 0.0575576 0.694571
2843.11 0.0597096 0.0574118 0.796378
2843.21 0.0565996 0.0572707 -0.234739
2843.31 0.053698 0.0571341 -1.21436
2843.41 0.0640988 0.0570019 2.29503
2843.51 0.057916 0.0568739 0.36036
2843.61 0.0608168 0.05675 1.38814
2843.71 0.0606676 0.0566301 1.38507
2843.81 0.05966 0.056514 1.09738
2843.91 0.0567812 0.0564016 0.132907
2844.01 0.0610744 0.0562928 1.62512
2844.11 0.0553537 0.0561876 -0.296747
2844.21 0.0515784 0.0560856 -1.61964
2844.31 0.0560323 0.055987 0.0159527
2844.41 0.0517063 0.0558915 -1.52395
2844.51 0.0545897 0.055799 -0.432336
2844.61 0.0566562 0.0557095 0.326586
2844.71 0.0564272 0.0556229 0.284146
2844.81 0.0561358 0.0555391 0.208345
2844.91 0.0530303 0.0554579 -0.854764
2845.01 0.0560966 0.0553793 0.25098
2845.11 0.0583975 0.0553033 1.07653
2845.21 0.0576115 0.0552297 0.83429
2845.31 0.056206 0.0551584 0.370522
2845.41 0.0561287 0.0550894 0.366739
2845.51 0.0568623 0.0550227 0.657054
2845.61 0.0509774 0.054958 -1.44526
2845.71 0.0583672 0.0548955 1.20817
2845.81 0.0607158 0.0548349 1.98675
2845.91 0.0550187 0.0547763 0.0850339
2846.01 0.0525511 0.0547195 -0.767026
2846.11 0.0544288 0.0546646 -0.0852153
2846.21 0.0543569 0.0546114 -0.0918234
2846.31 0.0529732 0.0545599 -0.571106
2846.41 0.0544777 0.0545101 -0.0115913
2846.51 0.0561742 0.0544619 0.601094
2846.61 0.0546295 0.0544152 0.0769366
2846.71 0.0550207 0.05437 0.230523
2846.81 0.0530924 0.0543263 -0.444316
2846.91 0.0536349 0.0542839 -0.231907
2847.01 0.0525209 0.0542429 -0.612693
2847.11 0.056741 0.0542033 0.883832
2847.21 0.0566435 0.0541648 0.872716
2847.31 0.0554661 0.0541277 0.476454
2847.41 0.0518888 0.0540917 -0.788013
2847.51 0.0533343 0.0540568 -0.261087
2847.61 0.0547568 0.0540231 0.260945
2847.71 0.0542051 0.0539905 0.0766926
2847.81 0.0537078 0.0539589 -0.0906431
2847.91 0.0553804 0.0539283 0.518939
2848.01 0.0497402 0.0538987 -1.52543
2848.11 0.0527347 0.05387 -0.409809
2848.21 0.0585756 0.0538423 1.64001
2848.31 0.0511859 0.0538154 -0.939565
2848.41 0.0546574 0.0537894 0.311394
2848.51 0.0484993 0.0537643 -1.96177
2848.61 0.057889 0.0537399 1.4479
2848.71 0.0508771 0.0537164 -1.04928
2848.81 0.049377 0.0536935 -1.60489
2848.91 0.0522162 0.0536714 -0.530586
2849.01 0.0570957 0.0536501 1.19425
2849.11 0.0579184 0.0536294 1.48709
2849.21 0.0512489 0.0536093 -0.860843
2849.31 0.0530803 0.0535899 -0.178772
2849.41 0.0537357 0.0535711 0.0586925
2849.51 0.0517658 0.053553 -0.649818
2849.61 0.060467 0.0535354 2.35077
2849.71 0.0533839 0.0535183 -0.0485528
2849.81 0.0581853 0.0535019 1.6361
2849.91 0.056639 0.0534859 1.10824
