# Data from DA_130524_E7.h5 stim 2
# Ratiometric estimator mono-exponential fit
# Fitted model Ca = baseline+delta*exp(-(t-t0)/tau)
# nobs = 178
# number of degrees of freedom = 175
# baseline length = 7
# fit started from point 29
# estimated baseline 0.093706 and standard error 0.00102631
# estimated delta 0.0571377 and standard error 0.0187565
# estimated tau 0.00175563 and standard error 0
# residual sum of squares: 300.33
# RSS per degree of freedom: 1.71617
# Probability of observing a larger of equal RSS per DOF under the null hypothesis: 1.16965e-08
# WARNING: THE FIT IS NOT GOOD!

# rss per degree of freedom: 1.71617

# Time    Ca  Prediction  Residual
705.015 0.0952776 0.093706 0.116077
705.115 0.0994335 0.093706 0.408866
705.215 0.0878889 0.093706 -0.452626
705.315 0.0783629 0.093706 -1.21921
705.415 0.0956734 0.093706 0.146748
705.515 0.0717628 0.093706 -1.73939
705.615 0.076865 0.093706 -1.3687

707.915 0.150844 0.150844 1.87386e-09
708.015 0.150468 0.093706 2.95775
708.115 0.14289 0.093706 2.67994
708.215 0.138901 0.093706 2.57039
708.315 0.188815 0.093706 4.2684
708.415 0.131713 0.093706 2.3001
708.515 0.153115 0.093706 3.30501
708.615 0.143731 0.093706 2.9212
708.715 0.121063 0.093706 1.7661
708.815 0.117472 0.093706 1.54677
708.915 0.127414 0.093706 2.12596
709.015 0.139958 0.093706 2.53733
709.115 0.156796 0.093706 3.37431
709.215 0.110603 0.093706 1.12905
709.315 0.12419 0.093706 1.84335
709.415 0.107903 0.093706 0.914825
709.515 0.140108 0.093706 2.70977
709.615 0.11863 0.093706 1.5169
709.715 0.130104 0.093706 2.20495
709.815 0.0998615 0.093706 0.428014
709.915 0.12935 0.093706 2.19553
710.015 0.127627 0.093706 2.09214
710.115 0.108685 0.093706 1.00166
710.215 0.0738403 0.093706 -1.49894
710.315 0.100534 0.093706 0.469262
710.415 0.111166 0.093706 1.16888
710.515 0.103024 0.093706 0.644702
710.615 0.116512 0.093706 1.43978
710.715 0.0868588 0.093706 -0.518946
710.815 0.108756 0.093706 0.999719
710.915 0.134548 0.093706 2.43392
711.015 0.118723 0.093706 1.60462
711.115 0.0978867 0.093706 0.295572
711.215 0.102479 0.093706 0.6112
711.315 0.0997999 0.093706 0.421082
711.415 0.111917 0.093706 1.22779
711.515 0.116264 0.093706 1.42065
711.615 0.109945 0.093706 1.0856
711.715 0.0843361 0.093706 -0.705578
711.815 0.124691 0.093706 1.95765
711.915 0.0815767 0.093706 -0.907143
712.015 0.100248 0.093706 0.452219
712.115 0.107065 0.093706 0.917432
712.215 0.0849198 0.093706 -0.663231
712.315 0.104608 0.093706 0.758534
712.415 0.0976137 0.093706 0.271025
712.515 0.0884518 0.093706 -0.378434
712.615 0.0870607 0.093706 -0.51695
712.715 0.113058 0.093706 1.30356
712.815 0.112096 0.093706 1.18704
712.915 0.0908156 0.093706 -0.214734
713.015 0.095275 0.093706 0.112665
713.115 0.104604 0.093706 0.739681
713.215 0.107991 0.093706 0.929433
713.315 0.103312 0.093706 0.680821
713.415 0.0924151 0.093706 -0.0966046
713.515 0.088194 0.093706 -0.397978
713.615 0.113535 0.093706 1.30982
713.715 0.103058 0.093706 0.641076
713.815 0.076275 0.093706 -1.38286
713.915 0.106334 0.093706 0.788722
714.015 0.0913245 0.093706 -0.17562
714.115 0.0964545 0.093706 0.19845
714.215 0.107644 0.093706 0.991534
714.315 0.0997541 0.093706 0.437736
714.415 0.0860421 0.093706 -0.618264
714.515 0.0996219 0.093706 0.421926
714.615 0.107795 0.093706 0.990986
714.715 0.0830306 0.093706 -0.823797
714.815 0.0793356 0.093706 -1.1614
714.915 0.0975806 0.093706 0.275185
715.015 0.103521 0.093706 0.700533
715.115 0.0624144 0.093706 -2.75548
715.215 0.116559 0.093706 1.57797
715.315 0.0877832 0.093706 -0.444088
715.415 0.0848177 0.093706 -0.696767
715.515 0.0854941 0.093706 -0.639385
715.615 0.0838425 0.093706 -0.797608
715.715 0.115817 0.093706 1.46573
715.815 0.104699 0.093706 0.784927
715.915 0.0910734 0.093706 -0.1982
716.015 0.0791965 0.093706 -1.15964
716.115 0.0911305 0.093706 -0.193249
716.215 0.0836857 0.093706 -0.7617
716.315 0.0888539 0.093706 -0.377162
716.415 0.0939188 0.093706 0.0154448
716.515 0.0828418 0.093706 -0.883
716.615 0.0888061 0.093706 -0.367127
716.715 0.0892714 0.093706 -0.349024
716.815 0.106074 0.093706 0.864706
716.915 0.101202 0.093706 0.555973
717.015 0.0617383 0.093706 -2.78868
717.115 0.0907616 0.093706 -0.227743
717.215 0.103109 0.093706 0.674222
717.315 0.0762376 0.093706 -1.42033
717.415 0.0778837 0.093706 -1.32948
717.515 0.10074 0.093706 0.49456
717.615 0.0967685 0.093706 0.222029
717.715 0.0965355 0.093706 0.2106
717.815 0.0861013 0.093706 -0.573111
717.915 0.0998985 0.093706 0.465172
718.015 0.0828731 0.093706 -0.825717
718.115 0.0980124 0.093706 0.326015
718.215 0.0961921 0.093706 0.188221
718.315 0.105552 0.093706 0.848849
718.415 0.0920835 0.093706 -0.120086
718.515 0.124941 0.093706 2.04538
718.615 0.0692467 0.093706 -2.09885
718.715 0.0735328 0.093706 -1.64968
718.815 0.0787304 0.093706 -1.21451
718.915 0.105388 0.093706 0.852452
719.015 0.0853224 0.093706 -0.673823
719.115 0.0734717 0.093706 -1.70079
719.215 0.0930884 0.093706 -0.0468367
719.315 0.08499 0.093706 -0.727343
719.415 0.105042 0.093706 0.808892
719.515 0.0701852 0.093706 -1.85789
719.615 0.0965295 0.093706 0.207294
719.715 0.0740591 0.093706 -1.59814
719.815 0.0834347 0.093706 -0.795672
719.915 0.0829715 0.093706 -0.836133
720.015 0.0947609 0.093706 0.0782421
720.115 0.0838192 0.093706 -0.800391
720.215 0.0887804 0.093706 -0.378619
720.315 0.0939695 0.093706 0.0196984
720.415 0.0975769 0.093706 0.29103
720.515 0.109647 0.093706 1.05638
720.615 0.0942833 0.093706 0.0433947
720.715 0.0797826 0.093706 -1.1051
720.815 0.0874523 0.093706 -0.480643
720.915 0.0966644 0.093706 0.212429
721.015 0.0815056 0.093706 -0.932435
721.115 0.0993939 0.093706 0.427458
721.215 0.0843232 0.093706 -0.757387
721.315 0.116853 0.093706 1.54074
721.415 0.099742 0.093706 0.434717
721.515 0.0713533 0.093706 -1.83881
721.615 0.0917476 0.093706 -0.148104
721.715 0.0555909 0.093706 -3.54283
721.815 0.0687329 0.093706 -2.02477
721.915 0.0890975 0.093706 -0.362875
722.015 0.0740901 0.093706 -1.61576
722.115 0.0869939 0.093706 -0.501006
722.215 0.0756879 0.093706 -1.43541
722.315 0.0866538 0.093706 -0.527562
722.415 0.0895028 0.093706 -0.33111
722.515 0.104241 0.093706 0.759281
722.615 0.100598 0.093706 0.505249
722.715 0.0913536 0.093706 -0.176289
722.815 0.0696989 0.093706 -2.05442
722.915 0.0875383 0.093706 -0.473365
723.015 0.0851143 0.093706 -0.682523
723.115 0.0732903 0.093706 -1.69787
723.215 0.0814925 0.093706 -0.969481
723.315 0.113344 0.093706 1.30686
723.415 0.128816 0.093706 2.17587
723.515 0.0873253 0.093706 -0.49417
723.615 0.0739131 0.093706 -1.53318
723.715 0.0756498 0.093706 -1.51893
723.815 0.100969 0.093706 0.522019
723.915 0.0736897 0.093706 -1.64359
724.015 0.0748934 0.093706 -1.50237
724.115 0.0872091 0.093706 -0.508463
724.215 0.080135 0.093706 -1.03061
724.315 0.08098 0.093706 -0.97916
724.415 0.0818591 0.093706 -0.920082
724.515 0.0934288 0.093706 -0.0209961
724.615 0.0967609 0.093706 0.22727
724.715 0.108088 0.093706 1.01195
724.815 0.0723784 0.093706 -1.74428
724.915 0.0969306 0.093706 0.243038
