# Data from DA_130524_E7.h5 stim 3
# Ratiometric estimator mono-exponential fit
# Fitted model Ca = baseline+delta*exp(-(t-t0)/tau)
# nobs = 180
# number of degrees of freedom = 177
# baseline length = 7
# fit started from point 27
# estimated baseline 0.068086 and standard error 0.000697476
# estimated delta 0.0820713 and standard error 0.0033251
# estimated tau 2.54379 and standard error 0.158424
# residual sum of squares: 175.644
# RSS per degree of freedom: 0.992342
# Probability of observing a larger of equal RSS per DOF under the null hypothesis: 0.514664

# rss per degree of freedom: 0.992342

# Time    Ca  Prediction  Residual
1105.02 0.0695088 0.068086 0.221218
1105.12 0.083877 0.068086 2.36822
1105.21 0.0601224 0.068086 -1.30457
1105.31 0.0646066 0.068086 -0.565794
1105.41 0.0670352 0.068086 -0.169408
1105.51 0.0767003 0.068086 1.31971
1105.61 0.0684474 0.068086 0.0569534

1107.71 0.145942 0.150157 -0.437142
1107.81 0.153356 0.146994 0.648544
1107.91 0.146051 0.143952 0.225097
1108.01 0.146857 0.141027 0.609672
1108.11 0.144087 0.138215 0.621283
1108.21 0.142257 0.135512 0.740268
1108.31 0.11517 0.132913 -2.1933
1108.41 0.132303 0.130414 0.212738
1108.51 0.124887 0.128011 -0.372079
1108.61 0.129965 0.125701 0.485074
1108.71 0.130972 0.12348 0.852402
1108.81 0.11424 0.121345 -0.894239
1108.91 0.112999 0.119292 -0.780026
1109.01 0.122585 0.117318 0.631091
1109.11 0.118889 0.11542 0.426009
1109.21 0.117506 0.113595 0.47894
1109.31 0.111293 0.111841 -0.0695364
1109.41 0.104408 0.110154 -0.747748
1109.51 0.104246 0.108533 -0.54818
1109.61 0.105872 0.106973 -0.141314
1109.71 0.101138 0.105474 -0.583604
1109.81 0.10244 0.104033 -0.213732
1109.91 0.107834 0.102647 0.669092
1110.01 0.114068 0.101315 1.60513
1110.11 0.0834218 0.100034 -2.45896
1110.21 0.0982779 0.0988026 -0.0717791
1110.31 0.0948674 0.0976186 -0.383541
1110.41 0.105111 0.0964801 1.10113
1110.51 0.088124 0.0953856 -1.03705
1110.61 0.0964664 0.0943332 0.291055
1110.71 0.0968898 0.0933214 0.486324
1110.81 0.103434 0.0923486 1.49094
1110.91 0.0919344 0.0914133 0.0722597
1111.01 0.0822244 0.0905141 -1.19409
1111.11 0.0973429 0.0896495 1.07433
1111.21 0.0911729 0.0888183 0.336515
1111.31 0.0871105 0.0880191 -0.131698
1111.41 0.0928458 0.0872507 0.806061
1111.51 0.0853905 0.0865119 -0.165974
1111.61 0.0865475 0.0858016 0.107279
1111.71 0.0975967 0.0851187 1.72906
1111.81 0.0770926 0.0844621 -1.12253
1111.91 0.0794465 0.0838308 -0.652712
1112.01 0.0974776 0.0832239 1.95641
1112.11 0.076894 0.0826403 -0.868962
1112.21 0.0822942 0.0820793 0.0315161
1112.31 0.0785431 0.0815399 -0.446378
1112.41 0.0747095 0.0810212 -0.965482
1112.51 0.0865616 0.0805226 0.901073
1112.61 0.083416 0.0800432 0.501125
1112.71 0.078917 0.0795823 -0.100777
1112.81 0.0736835 0.0791391 -0.86341
1112.91 0.0813505 0.078713 0.392463
1113.01 0.0779778 0.0783034 -0.048664
1113.11 0.0882913 0.0779095 1.47983
1113.21 0.0634178 0.0775308 -2.2744
1113.31 0.0814252 0.0771667 0.644808
1113.41 0.0790506 0.0768167 0.341299
1113.51 0.0684917 0.0764801 -1.25761
1113.61 0.06698 0.0761565 -1.46041
1113.71 0.064791 0.0758454 -1.80153
1113.81 0.0893887 0.0755463 1.95703
1113.91 0.0879965 0.0752587 1.85032
1114.01 0.0833551 0.0749822 1.27424
1114.11 0.077921 0.0747164 0.492171
1114.21 0.0862501 0.0744608 1.70348
1114.31 0.0771602 0.0742151 0.450155
1114.41 0.072924 0.0739788 -0.167172
1114.51 0.065828 0.0737516 -1.26763
1114.61 0.0723364 0.0735332 -0.191807
1114.71 0.0768419 0.0733233 0.524068
1114.81 0.073937 0.0731214 0.128262
1114.91 0.077025 0.0729273 0.627826
1115.01 0.0716372 0.0727406 -0.176935
1115.11 0.0642787 0.0725612 -1.39516
1115.21 0.0714987 0.0723887 -0.144078
1115.31 0.069248 0.0722228 -0.482459
1115.41 0.0717217 0.0720634 -0.0535555
1115.51 0.0744542 0.07191 0.399495
1115.61 0.0687812 0.0717626 -0.46928
1115.71 0.0677972 0.0716209 -0.618773
1115.81 0.0708312 0.0714846 -0.105885
1115.91 0.0749235 0.0713536 0.555301
1116.01 0.0721137 0.0712277 0.140234
1116.11 0.064735 0.0711066 -1.04617
1116.21 0.0686601 0.0709901 -0.367731
1116.31 0.0686977 0.0708782 -0.34783
1116.41 0.0772798 0.0707705 1.01862
1116.51 0.067884 0.0706671 -0.450499
1116.61 0.0660339 0.0705676 -0.73898
1116.71 0.0657132 0.0704719 -0.788
1116.81 0.0684369 0.0703799 -0.321672
1116.91 0.0715017 0.0702915 0.195713
1117.01 0.0764392 0.0702065 0.970953
1117.11 0.0767746 0.0701247 1.03702
1117.21 0.0739715 0.0700462 0.623052
1117.31 0.0715433 0.0699706 0.254697
1117.41 0.0710094 0.0698979 0.180943
1117.51 0.0697878 0.0698281 -0.0063089
1117.61 0.0774731 0.0697609 1.19368
1117.71 0.065143 0.0696964 -0.746874
1117.81 0.0699079 0.0696343 0.0431133
1117.91 0.0771121 0.0695746 1.16609
1118.01 0.0592633 0.0695172 -1.7379
1118.11 0.0759404 0.0694621 1.01554
1118.21 0.0678806 0.069409 -0.249391
1118.31 0.0840547 0.069358 2.19725
1118.41 0.0723844 0.069309 0.478739
1118.51 0.0605977 0.0692618 -1.45829
1118.61 0.0781447 0.0692165 1.41971
1118.71 0.0761999 0.0691729 1.12252
1118.81 0.0667463 0.069131 -0.392196
1118.91 0.0632019 0.0690908 -0.99441
1119.01 0.0725087 0.069052 0.557833
1119.11 0.0700781 0.0690148 0.174418
1119.21 0.0805111 0.068979 1.78312
1119.31 0.0714462 0.0689446 0.415744
1119.41 0.0667918 0.0689115 -0.349205
1119.51 0.0697928 0.0688796 0.150063
1119.61 0.0665492 0.0688491 -0.380683
1119.71 0.067513 0.0688196 -0.219109
1119.81 0.0701942 0.0687914 0.22481
1119.91 0.0693138 0.0687642 0.0864196
1120.01 0.069086 0.068738 0.0571215
1120.11 0.0617623 0.0687129 -1.17265
1120.21 0.0660016 0.0686887 -0.447967
1120.31 0.0730075 0.0686655 0.703114
1120.41 0.0623953 0.0686432 -1.06539
1120.51 0.0658003 0.0686217 -0.48906
1120.61 0.0666626 0.068601 -0.328333
1120.71 0.0688333 0.0685812 0.0426612
1120.81 0.0630928 0.0685621 -0.91193
1120.91 0.0614446 0.0685437 -1.2134
1121.01 0.0561491 0.0685261 -2.15134
1121.11 0.0646301 0.0685091 -0.667495
1121.21 0.0837676 0.0684928 2.3634
1121.31 0.0738607 0.0684771 0.858861
1121.41 0.0614186 0.0684621 -1.20976
1121.51 0.077656 0.0684476 1.42863
1121.61 0.0660436 0.0684336 -0.397564
1121.71 0.0730896 0.0684202 0.757655
1121.81 0.0523537 0.0684074 -2.89863
1121.91 0.0586672 0.068395 -1.71957
1122.01 0.0627936 0.0683831 -0.96129
1122.11 0.0616598 0.0683716 -1.18263
1122.21 0.0658503 0.0683606 -0.422207
1122.31 0.0718491 0.06835 0.580555
1122.41 0.0581986 0.0683398 -1.73664
1122.51 0.069629 0.0683301 0.2145
1122.61 0.0623813 0.0683206 -1.00902
1122.71 0.068629 0.0683116 0.0524049
1122.81 0.0617783 0.0683029 -1.13461
1122.91 0.0666674 0.0682945 -0.270562
1123.01 0.0718347 0.0682865 0.580436
1123.11 0.0771047 0.0682788 1.42128
1123.21 0.0668291 0.0682713 -0.246554
1123.31 0.074747 0.0682642 1.02761
1123.41 0.060409 0.0682573 -1.37079
1123.51 0.0584173 0.0682507 -1.72912
1123.61 0.0721336 0.0682444 0.644559
1123.71 0.0787489 0.0682383 1.69502
1123.81 0.0751528 0.0682324 1.13668
1123.91 0.075114 0.0682268 1.12723
1124.01 0.068908 0.0682213 0.113821
1124.11 0.0741205 0.0682161 0.971505
1124.21 0.0740838 0.0682111 0.93503
1124.31 0.0681346 0.0682063 -0.0118448
1124.41 0.0700566 0.0682017 0.308123
1124.51 0.0795078 0.0681972 1.77473
1124.61 0.0653984 0.0681929 -0.463825
1124.71 0.0743561 0.0681888 0.996797
1124.81 0.0740246 0.0681848 0.956576
1124.91 0.066313 0.068181 -0.31568
