# Data from DA_130524_E7.h5 stim 4
# Ratiometric estimator mono-exponential fit
# Fitted model Ca = baseline+delta*exp(-(t-t0)/tau)
# nobs = 172
# number of degrees of freedom = 169
# baseline length = 7
# fit started from point 35
# estimated baseline 0.0641069 and standard error 0.00055206
# estimated delta 0.0632209 and standard error 0.00193422
# estimated tau 2.94258 and standard error 0.15628
# residual sum of squares: 172.22
# RSS per degree of freedom: 1.01905
# Probability of observing a larger of equal RSS per DOF under the null hypothesis: 0.416741

# rss per degree of freedom: 1.01905

# Time    Ca  Prediction  Residual
1505.02 0.0688035 0.0641069 1.1028
1505.12 0.0600349 0.0641069 -0.993505
1505.21 0.0606905 0.0641069 -0.829061
1505.31 0.0614051 0.0641069 -0.646758
1505.41 0.0644633 0.0641069 0.0847896
1505.51 0.0729622 0.0641069 1.99797
1505.61 0.0649498 0.0641069 0.205197

1508.51 0.115112 0.127328 -2.19567
1508.61 0.129509 0.125215 0.726655
1508.71 0.13076 0.123174 1.28758
1508.81 0.135176 0.1212 2.31051
1508.91 0.116885 0.119292 -0.431791
1509.01 0.113118 0.117448 -0.793259
1509.11 0.117396 0.115666 0.308927
1509.21 0.116057 0.113943 0.373649
1509.31 0.111365 0.112278 -0.168931
1509.41 0.114465 0.110669 0.689195
1509.51 0.100187 0.109113 -1.71301
1509.61 0.112776 0.107609 0.934037
1509.71 0.100296 0.106156 -1.15312
1509.81 0.105557 0.104751 0.152827
1509.91 0.107879 0.103393 0.849292
1510.01 0.105032 0.10208 0.559403
1510.11 0.0991704 0.100811 -0.325161
1510.21 0.0998478 0.0995849 0.0510128
1510.31 0.0984861 0.0983994 0.0170133
1510.41 0.0987848 0.0972536 0.298679
1510.51 0.10353 0.0961461 1.4289
1510.61 0.0991049 0.0950756 0.783538
1510.71 0.095908 0.0940408 0.368608
1510.81 0.090823 0.0930407 -0.456471
1510.91 0.0866555 0.0920739 -1.12495
1511.01 0.0804784 0.0911394 -2.24527
1511.11 0.0919043 0.0902362 0.342286
1511.21 0.0911256 0.0893632 0.362017
1511.31 0.0924483 0.0885193 0.79963
1511.41 0.0866005 0.0877036 -0.232642
1511.51 0.0885152 0.0869152 0.328761
1511.61 0.0794423 0.0861531 -1.45137
1511.71 0.0864367 0.0854165 0.213964
1511.81 0.0861179 0.0847044 0.298627
1511.91 0.0931101 0.0840162 1.83999
1512.01 0.086585 0.083351 0.678951
1512.11 0.075386 0.082708 -1.63302
1512.21 0.0786378 0.0820865 -0.749285
1512.31 0.0733647 0.0814857 -1.80649
1512.41 0.0758729 0.0809051 -1.10415
1512.51 0.0806949 0.0803438 0.0771747
1512.61 0.0771309 0.0798013 -0.595711
1512.71 0.0742371 0.0792769 -1.12967
1512.81 0.0804231 0.07877 0.358947
1512.91 0.076689 0.0782801 -0.353103
1513.01 0.0765224 0.0778065 -0.282367
1513.11 0.0755905 0.0773488 -0.391193
1513.21 0.0721443 0.0769063 -1.06615
1513.31 0.0777095 0.0764786 0.269854
1513.41 0.0790114 0.0760653 0.650765
1513.51 0.0836129 0.0756657 1.71083
1513.61 0.072845 0.0752795 -0.549919
1513.71 0.0723993 0.0749062 -0.566502
1513.81 0.0789756 0.0745454 0.993556
1513.91 0.0722003 0.0741966 -0.452691
1514.01 0.0760705 0.0738595 0.496519
1514.11 0.0706717 0.0735336 -0.660933
1514.21 0.0729075 0.0732186 -0.070426
1514.31 0.0662854 0.0729142 -1.53725
1514.41 0.0748507 0.0726199 0.505142
1514.51 0.0729717 0.0723355 0.142624
1514.61 0.0755046 0.0720605 0.774622
1514.71 0.0677155 0.0717948 -0.948013
1514.81 0.0666249 0.0715379 -1.16129
1514.91 0.0704979 0.0712896 -0.18044
1515.01 0.0737621 0.0710496 0.616195
1515.11 0.0691569 0.0708176 -0.384737
1515.21 0.0678446 0.0705934 -0.638971
1515.31 0.0775879 0.0703767 1.61811
1515.41 0.070032 0.0701672 -0.0310934
1515.51 0.0692047 0.0699647 -0.175534
1515.61 0.0724371 0.069769 0.598406
1515.71 0.0768772 0.0695798 1.60602
1515.81 0.0779656 0.0693969 1.9062
1515.91 0.068648 0.0692202 -0.130295
1516.01 0.0757522 0.0690493 1.50426
1516.11 0.0786495 0.0688842 2.1382
1516.21 0.0700244 0.0687246 0.292916
1516.31 0.0624431 0.0685703 -1.48905
1516.41 0.0764606 0.0684211 1.81327
1516.51 0.0752389 0.068277 1.5764
1516.61 0.0728092 0.0681376 1.06454
1516.71 0.0728422 0.068003 1.08384
1516.81 0.0672954 0.0678728 -0.137995
1516.91 0.0598534 0.067747 -1.93642
1517.01 0.075289 0.0676253 1.74599
1517.11 0.0649118 0.0675078 -0.610145
1517.21 0.0709428 0.0673941 0.821312
1517.31 0.0668869 0.0672843 -0.0936267
1517.41 0.0644293 0.0671781 -0.664238
1517.51 0.0718052 0.0670755 1.0843
1517.61 0.066717 0.0669763 -0.0607654
1517.71 0.0664574 0.0668805 -0.100502
1517.81 0.0651139 0.0667878 -0.398105
1517.91 0.0739673 0.0666982 1.69216
1518.01 0.0696226 0.0666116 0.692986
1518.11 0.0704751 0.0665279 0.915857
1518.21 0.0710844 0.066447 1.0877
1518.31 0.0735761 0.0663688 1.64271
1518.41 0.0716582 0.0662933 1.21117
1518.51 0.0699784 0.0662202 0.876089
1518.61 0.0698067 0.0661496 0.874001
1518.71 0.0626934 0.0660814 -0.832211
1518.81 0.0676997 0.0660154 0.404135
1518.91 0.0596193 0.0659516 -1.57439
1519.01 0.0609998 0.06589 -1.20627
1519.11 0.0613257 0.0658304 -1.10892
1519.21 0.066306 0.0657728 0.128911
1519.31 0.0624544 0.0657171 -0.808721
1519.41 0.063517 0.0656633 -0.53009
1519.51 0.0644687 0.0656113 -0.2773
1519.61 0.0628947 0.0655611 -0.638776
1519.71 0.0564853 0.0655125 -2.28567
1519.81 0.0639781 0.0654655 -0.354578
1519.91 0.0600108 0.0654201 -1.28906
1520.01 0.0616356 0.0653762 -0.915159
1520.11 0.0639577 0.0653338 -0.334103
1520.21 0.0648331 0.0652928 -0.111255
1520.31 0.0605389 0.0652532 -1.16043
1520.41 0.0666219 0.0652149 0.338448
1520.51 0.0633818 0.0651779 -0.446187
1520.61 0.0639465 0.0651421 -0.287556
1520.71 0.0700267 0.0651075 1.15635
1520.81 0.0645515 0.0650741 -0.122223
1520.91 0.0677846 0.0650418 0.645993
1521.01 0.0617429 0.0650105 -0.784959
1521.11 0.0693342 0.0649803 1.02516
1521.21 0.0615883 0.0649512 -0.82032
1521.31 0.0663966 0.0649229 0.348783
1521.41 0.0684888 0.0648957 0.845521
1521.51 0.0672466 0.0648693 0.561686
1521.61 0.06464 0.0648438 -0.0484007
1521.71 0.0729764 0.0648192 1.85875
1521.81 0.0603513 0.0647954 -1.08554
1521.91 0.0711159 0.0647724 1.46303
1522.01 0.0643564 0.0647502 -0.0934735
1522.11 0.0557253 0.0647287 -2.22413
1522.21 0.064034 0.0647079 -0.161293
1522.31 0.0702477 0.0646878 1.30891
1522.41 0.065839 0.0646684 0.277693
1522.51 0.0613325 0.0646497 -0.804681
1522.61 0.0647453 0.0646315 0.0272901
1522.71 0.0570109 0.064614 -1.91742
1522.81 0.0705319 0.064597 1.37726
1522.91 0.0633703 0.0645807 -0.294855
1523.01 0.0662308 0.0645648 0.39997
1523.11 0.0640103 0.0645495 -0.131001
1523.21 0.0595215 0.0645347 -1.2338
1523.31 0.0647009 0.0645205 0.0425893
1523.41 0.0625551 0.0645066 -0.475451
1523.51 0.0653475 0.0644933 0.2038
1523.61 0.0612088 0.0644804 -0.812456
1523.71 0.0653433 0.0644679 0.211635
1523.81 0.0646662 0.0644558 0.050437
1523.91 0.0716673 0.0644442 1.68873
1524.01 0.0706505 0.0644329 1.44137
1524.11 0.0601494 0.064422 -1.06159
1524.21 0.0614961 0.0644115 -0.71337
1524.31 0.055937 0.0644013 -2.09413
1524.41 0.0659212 0.0643915 0.368113
1524.51 0.0677088 0.064382 0.792954
1524.61 0.0605637 0.0643728 -0.937182
1524.71 0.0646397 0.0643639 0.0668041
1524.81 0.0636184 0.0643553 -0.18064
1524.91 0.0641035 0.064347 -0.0596166
