# Data from DA_130524_E7.h5 stim 1
# Ratiometric estimator mono-exponential fit
# Fitted model Ca = baseline+delta*exp(-(t-t0)/tau)
# nobs = 186
# number of degrees of freedom = 183
# baseline length = 7
# fit started from point 21
# estimated baseline 0.117889 and standard error 0.00380029
# estimated delta 0.119577 and standard error 0.0224336
# estimated tau 2.34616 and standard error 0.610352
# residual sum of squares: 162.778
# RSS per degree of freedom: 0.889498
# Probability of observing a larger of equal RSS per DOF under the null hypothesis: 0.856217

# rss per degree of freedom: 0.889498

# Time    Ca  Prediction  Residual
345.015 0.132689 0.117889 0.411674
345.115 0.144407 0.117889 0.572283
345.215 0.121684 0.117889 0.0943929
345.315 0.135792 0.117889 0.428298
345.415 0.0821438 0.117889 -1.0083
345.515 0.153064 0.117889 0.788598
345.615 0.135799 0.117889 0.467279

347.115 0.228006 0.237466 -0.154888
347.215 0.252031 0.232476 0.277393
347.315 0.171977 0.227695 -1.11175
347.415 0.223383 0.223113 0.00490489
347.515 0.188589 0.218722 -0.566377
347.615 0.235513 0.214515 0.329792
347.715 0.244433 0.210483 0.465502
347.815 0.265464 0.206619 0.720222
347.915 0.232456 0.202917 0.459306
348.015 0.187262 0.199369 -0.249225
348.115 0.27386 0.195969 0.947299
348.215 0.234549 0.192711 0.607535
348.315 0.244463 0.189588 0.907078
348.415 0.228642 0.186597 0.691361
348.515 0.104993 0.18373 -2.31536
348.615 0.260954 0.180982 1.24269
348.715 0.291615 0.17835 1.47985
348.815 0.141529 0.175827 -0.832757
348.915 0.31283 0.173409 1.73174
349.015 0.203779 0.171092 0.642572
349.115 0.151867 0.168872 -0.370963
349.215 0.199879 0.166745 0.598605
349.315 0.287423 0.164706 1.76497
349.415 0.247928 0.162753 1.398
349.515 0.197044 0.160881 0.666327
349.615 0.155897 0.159087 -0.0712718
349.715 0.126232 0.157368 -0.740683
349.815 0.137531 0.15572 -0.480277
349.915 0.224796 0.154142 1.24008
350.015 0.187344 0.152629 0.692554
350.115 0.134787 0.151179 -0.428003
350.215 0.187068 0.14979 0.753646
350.315 0.127467 0.148459 -0.575912
350.415 0.17085 0.147183 0.499793
350.515 0.215848 0.145961 1.26814
350.615 0.116445 0.14479 -0.772214
350.715 0.0462179 0.143667 -3.46013
350.815 0.150953 0.142591 0.196879
350.915 0.0818099 0.141561 -1.88838
351.015 0.0983938 0.140573 -1.28672
351.115 0.17017 0.139626 0.705209
351.215 0.157315 0.138719 0.456292
351.315 0.105284 0.13785 -0.842137
351.415 0.17226 0.137017 0.707051
351.515 0.144106 0.136219 0.201623
351.615 0.114547 0.135454 -0.545563
351.715 0.16665 0.134721 0.635798
351.815 0.173978 0.134019 0.757157
351.915 0.166363 0.133346 0.718174
352.015 0.133538 0.132701 0.0218987
352.115 0.15742 0.132083 0.614784
352.215 0.174115 0.13149 0.964074
352.315 0.122307 0.130923 -0.224834
352.415 0.139378 0.130379 0.228262
352.515 0.116652 0.129858 -0.37853
352.615 0.112204 0.129358 -0.50397
352.715 0.0498246 0.12888 -2.9531
352.815 0.137848 0.128421 0.242074
352.915 0.15149 0.127982 0.602826
353.015 0.120336 0.12756 -0.188402
353.115 0.196551 0.127157 1.32705
353.215 0.182963 0.12677 0.983201
353.315 0.162053 0.1264 0.810921
353.415 0.213064 0.126044 1.64055
353.515 0.242577 0.125704 1.99649
353.615 0.201247 0.125378 1.41418
353.715 0.121913 0.125065 -0.0893887
353.815 0.11092 0.124766 -0.401451
353.915 0.133725 0.124479 0.25065
354.015 0.116723 0.124204 -0.212002
354.115 0.150622 0.12394 0.632358
354.215 0.10085 0.123688 -0.743744
354.315 0.127571 0.123446 0.114412
354.415 0.146574 0.123214 0.597929
354.515 0.134444 0.122992 0.305959
354.615 0.106171 0.122779 -0.526867
354.715 0.183142 0.122575 1.2818
354.815 0.18685 0.122379 1.43271
354.915 0.232719 0.122192 2.05737
355.015 0.101174 0.122012 -0.601636
355.115 0.156076 0.12184 0.85293
355.215 0.131615 0.121675 0.271736
355.315 0.130828 0.121517 0.25316
355.415 0.095322 0.121366 -0.816428
355.515 0.123404 0.121221 0.0584414
355.615 0.168823 0.121082 1.12847
355.715 0.16459 0.120949 0.980557
355.815 0.123675 0.120821 0.0769082
355.915 0.0858936 0.120699 -1.05793
356.015 0.153191 0.120581 0.822609
356.115 0.111803 0.120469 -0.233506
356.215 0.136754 0.120361 0.411385
356.315 0.0745375 0.120258 -1.4635
356.415 0.104586 0.120159 -0.488879
356.515 0.106443 0.120064 -0.464894
356.615 0.113836 0.119974 -0.170552
356.715 0.104321 0.119887 -0.434017
356.815 0.169994 0.119803 1.06173
356.915 0.150241 0.119723 0.738322
357.015 0.17629 0.119647 1.1828
357.115 0.135159 0.119573 0.421754
357.215 0.128224 0.119503 0.245916
357.315 0.0919813 0.119436 -0.833881
357.415 0.116728 0.119371 -0.0710852
357.515 0.125593 0.119309 0.183438
357.615 0.111027 0.11925 -0.227808
357.715 0.114468 0.119193 -0.14259
357.815 0.151692 0.119139 0.707843
357.915 0.117656 0.119087 -0.0370538
358.015 0.17519 0.119037 1.30162
358.115 0.100821 0.118989 -0.518086
358.215 0.14049 0.118943 0.55077
358.315 0.114402 0.118899 -0.117107
358.415 0.187455 0.118857 1.49302
358.515 0.0807513 0.118816 -1.362
358.615 0.101599 0.118778 -0.530264
358.715 0.0728551 0.11874 -1.49007
358.815 0.148563 0.118705 0.688274
358.915 0.225049 0.118671 1.88496
359.015 0.121777 0.118638 0.0884397
359.115 0.0821969 0.118607 -1.15093
359.215 0.141526 0.118577 0.661408
359.315 0.148757 0.118548 0.727623
359.415 0.0837303 0.118521 -1.10534
359.515 0.104886 0.118494 -0.445741
359.615 0.0915774 0.118469 -1.01007
359.715 0.106271 0.118445 -0.355561
359.815 0.128281 0.118422 0.263042
359.915 0.20164 0.118399 1.60231
360.015 0.177956 0.118378 1.35374
360.115 0.117624 0.118358 -0.0205671
360.215 0.127978 0.118338 0.260748
360.315 0.174085 0.118319 1.30313
360.415 0.0829006 0.118301 -1.12554
360.515 0.122751 0.118284 0.121526
360.615 0.0701078 0.118268 -1.63464
360.715 0.164111 0.118252 1.11021
360.815 0.158861 0.118237 0.978137
360.915 0.139609 0.118222 0.575873
361.015 0.0934026 0.118208 -0.808732
361.115 0.139093 0.118195 0.547889
361.215 0.133164 0.118182 0.404611
361.315 0.10371 0.11817 -0.435405
361.415 0.132677 0.118158 0.38856
361.515 0.135547 0.118147 0.434671
361.615 0.101245 0.118136 -0.483486
361.715 0.0837694 0.118126 -1.17133
361.815 0.0962245 0.118116 -0.730943
361.915 0.0782803 0.118106 -1.35329
362.015 0.130818 0.118097 0.355205
362.115 0.0936927 0.118089 -0.76758
362.215 0.144245 0.11808 0.661224
362.315 0.0771414 0.118072 -1.57027
362.415 0.100254 0.118065 -0.545209
362.515 0.165806 0.118057 1.12202
362.615 0.167105 0.11805 1.16414
362.715 0.138035 0.118043 0.526454
362.815 0.160277 0.118037 0.975631
362.915 0.156014 0.118031 0.859639
363.015 0.185551 0.118025 1.53325
363.115 0.105393 0.118019 -0.335251
363.215 0.106309 0.118014 -0.356567
363.315 0.168609 0.118009 1.23195
363.415 0.18671 0.118004 1.49339
363.515 0.111151 0.117999 -0.216928
363.615 0.154208 0.117994 0.913361
363.715 0.104965 0.11799 -0.403224
363.815 0.0843285 0.117985 -1.04882
363.915 0.0791407 0.117981 -1.22206
364.015 0.14407 0.117978 0.699232
364.115 0.14949 0.117974 0.745542
364.215 0.101707 0.11797 -0.50919
364.315 0.130213 0.117967 0.351665
364.415 0.153706 0.117964 0.897864
364.515 0.0985026 0.11796 -0.680952
364.615 0.0723383 0.117957 -1.76667
364.715 0.0922021 0.117955 -0.880154
364.815 0.141499 0.117952 0.598112
364.915 0.137669 0.117949 0.556656
