# Data from DA_130514_E5.h5 stim 4
# Ratiometric estimator mono-exponential fit
# Fitted model Ca = baseline+delta*exp(-(t-t0)/tau)
# nobs = 149
# number of degrees of freedom = 146
# baseline length = 7
# fit started from point 58
# estimated baseline 0.0664601 and standard error 0.000530369
# estimated delta 0.0263432 and standard error 0.000696334
# estimated tau 5.01376 and standard error 0.339135
# residual sum of squares: 154.255
# RSS per degree of freedom: 1.05654
# Probability of observing a larger of equal RSS per DOF under the null hypothesis: 0.303938

# rss per degree of freedom: 1.05654

# Time    Ca  Prediction  Residual
2780.01 0.0671799 0.0664601 0.354334
2780.11 0.0680177 0.0664601 0.76036
2780.21 0.0674426 0.0664601 0.483215
2780.31 0.0698898 0.0664601 1.65378
2780.41 0.0694014 0.0664601 1.42596
2780.51 0.0651978 0.0664601 -0.630051
2780.61 0.0693379 0.0664601 1.40359

2785.81 0.0923709 0.0928032 -0.182971
2785.91 0.0914364 0.092283 -0.353964
2786.01 0.0909948 0.0917731 -0.325125
2786.11 0.088348 0.0912732 -1.27091
2786.21 0.0951811 0.0907832 1.81465
2786.31 0.0866779 0.0903029 -1.57184
2786.41 0.0896305 0.0898321 -0.0867008
2786.51 0.0940085 0.0893705 1.9169
2786.61 0.0866801 0.0889181 -0.971877
2786.71 0.0877127 0.0884746 -0.327917
2786.81 0.0831587 0.0880399 -2.17539
2786.91 0.0873819 0.0876137 -0.100733
2787.01 0.0892641 0.087196 0.876818
2787.11 0.0844697 0.0867865 -1.01392
2787.21 0.0867349 0.0863851 0.150092
2787.31 0.0864258 0.0859916 0.187872
2787.41 0.0839631 0.0856059 -0.7066
2787.51 0.0841088 0.0852279 -0.497381
2787.61 0.0858357 0.0848572 0.43044
2787.71 0.0830934 0.0844939 -0.616963
2787.81 0.0826568 0.0841378 -0.664117
2787.91 0.0850842 0.0837887 0.56392
2788.01 0.0876144 0.0834465 1.79313
2788.11 0.0844393 0.0831111 0.581995
2788.21 0.0826587 0.0827823 -0.0546095
2788.31 0.0824415 0.0824599 -0.00823261
2788.41 0.0860661 0.082144 1.73232
2788.51 0.0825706 0.0818343 0.323508
2788.61 0.0825693 0.0815307 0.461839
2788.71 0.0829781 0.0812331 0.77475
2788.81 0.0824379 0.0809413 0.666092
2788.91 0.0800506 0.0806554 -0.272629
2789.01 0.0815097 0.080375 0.509744
2789.11 0.0798157 0.0801002 -0.129216
2789.21 0.0780839 0.0798309 -0.795234
2789.31 0.0799731 0.0795668 0.183865
2789.41 0.0799732 0.079308 0.306547
2789.51 0.0814333 0.0790543 1.05903
2789.61 0.0781479 0.0788056 -0.304615
2789.71 0.076117 0.0785618 -1.12328
2789.81 0.0782182 0.0783228 -0.048018
2789.91 0.0772167 0.0780886 -0.403931
2790.01 0.0816294 0.0778589 1.7076
2790.11 0.0793675 0.0776338 0.800038
2790.21 0.0772819 0.0774132 -0.0610598
2790.31 0.0774832 0.0771969 0.131918
2790.41 0.0783473 0.0769848 0.621051
2790.51 0.0816709 0.076777 2.18162
2790.61 0.0755661 0.0765733 -0.468276
2790.71 0.0748259 0.0763736 -0.718639
2790.81 0.0763287 0.0761778 0.0700911
2790.91 0.0789898 0.0759859 1.35871
2791.01 0.074231 0.0757978 -0.724874
2791.11 0.0793052 0.0756134 1.68412
2791.21 0.076009 0.0754326 0.260469
2791.31 0.0732032 0.0752554 -0.969698
2791.41 0.0757735 0.0750818 0.321676
2791.51 0.0753131 0.0749115 0.189226
2791.61 0.0761324 0.0747446 0.640219
2791.71 0.0745248 0.074581 -0.0260777
2791.81 0.0768989 0.0744206 1.14625
2791.91 0.0724324 0.0742634 -0.865751
2792.01 0.0723223 0.0741093 -0.849974
2792.11 0.0693634 0.0739583 -2.18445
2792.21 0.076964 0.0738102 1.44942
2792.31 0.0717697 0.0736651 -0.904152
2792.41 0.0687397 0.0735228 -2.33135
2792.51 0.074576 0.0733833 0.554836
2792.61 0.0724087 0.0732466 -0.393715
2792.71 0.073635 0.0731126 0.246559
2792.81 0.0751596 0.0729812 1.01057
2792.91 0.0722789 0.0728524 -0.277123
2793.01 0.0772166 0.0727262 2.05072
2793.11 0.0693765 0.0726025 -1.57652
2793.21 0.0750164 0.0724812 1.1807
2793.31 0.0693884 0.0723623 -1.42115
2793.41 0.073535 0.0722457 0.599901
2793.51 0.0753881 0.0721314 1.51225
2793.61 0.0731662 0.0720195 0.545222
2793.71 0.069202 0.0719097 -1.31965
2793.81 0.073822 0.0718021 0.961429
2793.91 0.0693818 0.0716966 -1.11815
2794.01 0.0710126 0.0715932 -0.277464
2794.11 0.0732438 0.0714918 0.826659
2794.21 0.0741715 0.0713924 1.30853
2794.31 0.0734956 0.071295 1.0482
2794.41 0.0712443 0.0711995 0.0215081
2794.51 0.0703484 0.0711059 -0.366576
2794.61 0.0676977 0.0710142 -1.61506
2794.71 0.0688523 0.0709243 -1.00985
2794.81 0.070225 0.0708361 -0.292691
2794.91 0.0727185 0.0707497 0.910772
2795.01 0.0701798 0.070665 -0.231031
2795.11 0.0716403 0.0705819 0.509319
2795.21 0.070864 0.0705006 0.17682
2795.31 0.0698741 0.0704208 -0.265196
2795.41 0.067263 0.0703425 -1.5168
2795.51 0.0725857 0.0702659 1.12568
2795.61 0.0683136 0.0701907 -0.90915
2795.71 0.0723332 0.0701171 1.06469
2795.81 0.0684529 0.0700448 -0.75912
2795.91 0.0692545 0.069974 -0.347881
2796.01 0.0693834 0.0699047 -0.248973
2796.11 0.0651558 0.0698366 -2.34645
2796.21 0.0679591 0.0697699 -0.88925
2796.31 0.0674417 0.0697046 -1.10495
2796.41 0.073005 0.0696405 1.59283
2796.51 0.0677932 0.0695777 -0.860481
2796.61 0.0707164 0.0695161 0.579057
2796.71 0.066547 0.0694558 -1.42266
2796.81 0.0726928 0.0693966 1.56873
2796.91 0.0687489 0.0693386 -0.2857
2797.01 0.0691633 0.0692818 -0.0571353
2797.11 0.0707533 0.0692261 0.733768
2797.21 0.0673353 0.0691715 -0.889623
2797.31 0.0688191 0.0691179 -0.146719
2797.41 0.0681532 0.0690654 -0.440104
2797.51 0.0715901 0.069014 1.22759
2797.61 0.0661736 0.0689635 -1.36896
2797.71 0.064531 0.0689141 -2.17506
2797.81 0.0687496 0.0688656 -0.0561517
2797.91 0.0721759 0.0688181 1.60117
2798.01 0.0703188 0.0687716 0.747666
2798.11 0.0644444 0.0687259 -2.14533
2798.21 0.0699117 0.0686812 0.596843
2798.31 0.0693563 0.0686373 0.342551
2798.41 0.0657121 0.0685943 -1.42682
2798.51 0.0697806 0.0685522 0.596999
2798.61 0.0651151 0.0685109 -1.68773
2798.71 0.0694598 0.0684704 0.479921
2798.81 0.0708231 0.0684307 1.15863
2798.91 0.0670744 0.0683917 -0.652213
2799.01 0.0692517 0.0683536 0.431347
2799.11 0.0664722 0.0683162 -0.904942
2799.21 0.0704817 0.0682796 1.06004
2799.31 0.0710527 0.0682436 1.32419
2799.41 0.0662738 0.0682084 -0.955269
2799.51 0.0677733 0.0681739 -0.197134
2799.61 0.0683921 0.06814 0.122236
2799.71 0.0678175 0.0681069 -0.142152
2799.81 0.0657083 0.0680743 -1.17144
2799.91 0.0662702 0.0680425 -0.864465
