# Data from DA_130514_E5.h5 stim 3
# Ratiometric estimator mono-exponential fit
# Fitted model Ca = baseline+delta*exp(-(t-t0)/tau)
# nobs = 159
# number of degrees of freedom = 156
# baseline length = 7
# fit started from point 48
# estimated baseline 0.0715721 and standard error 0.000475745
# estimated delta 0.0335651 and standard error 0.000860133
# estimated tau 4.10667 and standard error 0.243325
# residual sum of squares: 150.757
# RSS per degree of freedom: 0.966394
# Probability of observing a larger of equal RSS per DOF under the null hypothesis: 0.603468

# rss per degree of freedom: 0.966394

# Time    Ca  Prediction  Residual
2340.01 0.072515 0.0715721 0.392554
2340.11 0.0749757 0.0715721 1.39656
2340.21 0.0731328 0.0715721 0.64056
2340.31 0.0748928 0.0715721 1.34176
2340.41 0.0717529 0.0715721 0.0755678
2340.51 0.0789447 0.0715721 2.96669
2340.61 0.0685947 0.0715721 -1.28187

2344.81 0.102812 0.105137 -0.80489
2344.91 0.103457 0.10433 -0.303798
2345.01 0.0998927 0.103542 -1.27313
2345.11 0.0985241 0.102773 -1.52489
2345.21 0.105893 0.102022 1.31992
2345.31 0.101818 0.10129 0.184982
2345.41 0.100864 0.100575 0.100553
2345.51 0.104893 0.099877 1.72353
2345.61 0.0999228 0.0991961 0.256079
2345.71 0.101588 0.0985315 1.07182
2345.81 0.094513 0.097883 -1.23691
2345.91 0.0964729 0.09725 -0.275428
2346.01 0.0971934 0.0966323 0.195518
2346.11 0.0938934 0.0960294 -0.781256
2346.21 0.0960279 0.0954411 0.210898
2346.31 0.0946438 0.0948669 -0.0812012
2346.41 0.0945782 0.0943065 0.0993956
2346.51 0.0927475 0.0937596 -0.369471
2346.61 0.0983801 0.0932258 1.83528
2346.71 0.0927575 0.0927049 0.0192166
2346.81 0.0911506 0.0921965 -0.390917
2346.91 0.0894223 0.0917004 -0.857905
2347.01 0.0883133 0.0912161 -1.08139
2347.11 0.0899538 0.0907436 -0.292841
2347.21 0.0945163 0.0902824 1.52902
2347.31 0.0889674 0.0898323 -0.320208
2347.41 0.0857472 0.089393 -1.378
2347.51 0.0922333 0.0889643 1.22422
2347.61 0.091258 0.0885459 1.00728
2347.71 0.0932059 0.0881376 1.86757
2347.81 0.0852303 0.0877391 -0.965328
2347.91 0.0870207 0.0873501 -0.125497
2348.01 0.086617 0.0869706 -0.134545
2348.11 0.0877709 0.0866001 0.439606
2348.21 0.0908949 0.0862386 1.71112
2348.31 0.0864903 0.0858858 0.230066
2348.41 0.0813959 0.0855414 -1.64485
2348.51 0.0865818 0.0852054 0.519125
2348.61 0.0871824 0.0848774 0.869791
2348.71 0.0897027 0.0845573 1.92508
2348.81 0.0836502 0.084245 -0.229751
2348.91 0.085188 0.0839401 0.473076
2349.01 0.0837596 0.0836426 0.045275
2349.11 0.0842117 0.0833522 0.335236
2349.21 0.0801697 0.0830688 -1.13759
2349.31 0.079896 0.0827922 -1.14914
2349.41 0.0847974 0.0825223 0.887287
2349.51 0.0830283 0.0822589 0.298572
2349.61 0.0834183 0.0820018 0.558313
2349.71 0.0806343 0.0817509 -0.43482
2349.81 0.0857355 0.081506 1.60962
2349.91 0.0760181 0.0812671 -2.12872
2350.01 0.0805274 0.0810338 -0.202275
2350.11 0.0831031 0.0808062 0.908372
2350.21 0.0766194 0.0805841 -1.61496
2350.31 0.0811233 0.0803673 0.300083
2350.41 0.0764486 0.0801557 -1.4921
2350.51 0.0793832 0.0799492 -0.226067
2350.61 0.0796984 0.0797477 -0.0194394
2350.71 0.0758918 0.079551 -1.46962
2350.81 0.0799821 0.0793591 0.248787
2350.91 0.0794117 0.0791717 0.0942502
2351.01 0.0800173 0.0789889 0.40796
2351.11 0.0830112 0.0788105 1.64149
2351.21 0.0811415 0.0786364 0.971243
2351.31 0.0793818 0.0784664 0.363756
2351.41 0.0805168 0.0783006 0.879114
2351.51 0.080202 0.0781387 0.814814
2351.61 0.0747974 0.0779807 -1.291
2351.71 0.0732289 0.0778266 -1.88922
2351.81 0.0772301 0.0776761 -0.181633
2351.91 0.0753032 0.0775293 -0.904738
2352.01 0.0787971 0.077386 0.569276
2352.11 0.0831132 0.0772461 2.26183
2352.21 0.0749478 0.0771096 -0.874452
2352.31 0.0724953 0.0769764 -1.85869
2352.41 0.0746714 0.0768464 -0.902036
2352.51 0.0834794 0.0767195 2.61624
2352.61 0.0744933 0.0765957 -0.852661
2352.71 0.0786811 0.0764748 0.879995
2352.81 0.0749851 0.0763569 -0.559243
2352.91 0.0795783 0.0762418 1.34923
2353.01 0.0785958 0.0761294 0.982209
2353.11 0.0775616 0.0760198 0.631232
2353.21 0.0743405 0.0759128 -0.64687
2353.31 0.0738953 0.0758084 -0.778347
2353.41 0.0740354 0.0757065 -0.672145
2353.51 0.0754444 0.075607 -0.0661151
2353.61 0.0780501 0.0755099 1.03083
2353.71 0.0787668 0.0754152 1.34453
2353.81 0.0732075 0.0753228 -0.881927
2353.91 0.0737455 0.0752325 -0.612592
2354.01 0.075712 0.0751445 0.232468
2354.11 0.0736903 0.0750585 -0.562515
2354.21 0.0733987 0.0749747 -0.652369
2354.31 0.0777005 0.0748928 1.14539
2354.41 0.0728334 0.0748129 -0.8248
2354.51 0.0721778 0.074735 -1.0718
2354.61 0.0793563 0.0746589 1.86365
2354.71 0.0752053 0.0745846 0.255059
2354.81 0.0768534 0.0745122 0.947535
2354.91 0.0729975 0.0744414 -0.584776
2355.01 0.0762851 0.0743724 0.77817
2355.11 0.0755704 0.074305 0.51964
2355.21 0.0738856 0.0742393 -0.146527
2355.31 0.0731073 0.0741751 -0.443933
2355.41 0.0719469 0.0741125 -0.906269
2355.51 0.0705013 0.0740514 -1.51974
2355.61 0.0744083 0.0739918 0.172716
2355.71 0.0740163 0.0739335 0.0345059
2355.81 0.0723568 0.0738767 -0.621408
2355.91 0.0736867 0.0738213 -0.0554725
2356.01 0.0752407 0.0737672 0.599713
2356.11 0.0731409 0.0737144 -0.238579
2356.21 0.0716544 0.0736628 -0.846527
2356.31 0.0716394 0.0736126 -0.82207
2356.41 0.0759356 0.0735635 0.966867
2356.51 0.0699723 0.0735156 -1.4739
2356.61 0.0739473 0.0734688 0.197588
2356.71 0.073396 0.0734232 -0.0112036
2356.81 0.0731254 0.0733786 -0.104463
2356.91 0.0743885 0.0733352 0.435485
2357.01 0.0719439 0.0732928 -0.558767
2357.11 0.0733128 0.0732514 0.0256158
2357.21 0.0707558 0.073211 -1.03241
2357.31 0.0758897 0.0731716 1.10944
2357.41 0.0723454 0.0731331 -0.325372
2357.51 0.06944 0.0730955 -1.56082
2357.61 0.0700966 0.0730589 -1.24916
2357.71 0.0729476 0.0730231 -0.0309586
2357.81 0.0711416 0.0729882 -0.768887
2357.91 0.0732094 0.0729541 0.105503
2358.01 0.0707984 0.0729209 -0.892509
2358.11 0.0740259 0.0728885 0.472829
2358.21 0.0722722 0.0728568 -0.243738
2358.31 0.0705001 0.0728259 -0.963563
2358.41 0.0698922 0.0727957 -1.23259
2358.51 0.0745725 0.0727663 0.752877
2358.61 0.0729319 0.0727376 0.0804657
2358.71 0.0750242 0.0727095 0.957776
2358.81 0.0706185 0.0726822 -0.869232
2358.91 0.0741354 0.0726555 0.614903
2359.01 0.0745506 0.0726294 0.78908
2359.11 0.0757442 0.072604 1.28208
2359.21 0.0727243 0.0725791 0.0606383
2359.31 0.0724536 0.0725549 -0.0414791
2359.41 0.0697917 0.0725313 -1.16008
2359.51 0.0726545 0.0725082 0.0614557
2359.61 0.0727871 0.0724857 0.124831
2359.71 0.0712476 0.0724637 -0.51493
2359.81 0.0743136 0.0724422 0.769649
2359.91 0.0715972 0.0724213 -0.341511
