# Data from DA_130514_E5.h5 stim 2
# Ratiometric estimator mono-exponential fit
# Fitted model Ca = baseline+delta*exp(-(t-t0)/tau)
# nobs = 171
# number of degrees of freedom = 168
# baseline length = 7
# fit started from point 36
# estimated baseline 0.0742503 and standard error 0.000379343
# estimated delta 0.0461055 and standard error 0.00141724
# estimated tau 2.64688 and standard error 0.138896
# residual sum of squares: 161.697
# RSS per degree of freedom: 0.962483
# Probability of observing a larger of equal RSS per DOF under the null hypothesis: 0.622386

# rss per degree of freedom: 0.962483

# Time    Ca  Prediction  Residual
1925.02 0.079212 0.0742503 1.58046
1925.12 0.0754264 0.0742503 0.374221
1925.21 0.0757223 0.0742503 0.470069
1925.31 0.0755916 0.0742503 0.429897
1925.41 0.0754039 0.0742503 0.372624
1925.51 0.0745841 0.0742503 0.107649
1925.61 0.074146 0.0742503 -0.0342592

1928.61 0.115316 0.120356 -1.26375
1928.71 0.115776 0.118646 -0.728133
1928.81 0.114729 0.117 -0.580421
1928.91 0.113876 0.115415 -0.392124
1929.01 0.113828 0.113889 -0.0158519
1929.11 0.114495 0.11242 0.530967
1929.21 0.117154 0.111004 1.54366
1929.31 0.10893 0.109642 -0.187646
1929.41 0.10777 0.10833 -0.146349
1929.51 0.102192 0.107066 -1.3121
1929.61 0.110481 0.105849 1.20432
1929.71 0.10424 0.104678 -0.120004
1929.81 0.10997 0.10355 1.69817
1929.91 0.109031 0.102463 1.76245
1930.01 0.105002 0.101417 0.964015
1930.11 0.101226 0.10041 0.226892
1930.21 0.100307 0.0994403 0.24206
1930.31 0.103962 0.0985064 1.50852
1930.41 0.100867 0.0976071 0.889749
1930.51 0.0950288 0.0967411 -0.48952
1930.61 0.0949458 0.0959073 -0.273554
1930.71 0.0931604 0.0951043 -0.559361
1930.81 0.0909726 0.0943311 -0.992153
1930.91 0.0916996 0.0935866 -0.540953
1931.01 0.0966867 0.0928697 1.05847
1931.11 0.086331 0.0921794 -1.76286
1931.21 0.0898496 0.0915147 -0.483138
1931.31 0.0939968 0.0908746 0.894143
1931.41 0.0932119 0.0902582 0.864726
1931.51 0.0871967 0.0896647 -0.725884
1931.61 0.0860743 0.0890932 -0.908571
1931.71 0.0948744 0.0885429 1.80095
1931.81 0.0886643 0.088013 0.192641
1931.91 0.0892913 0.0875028 0.52621
1932.01 0.0823114 0.0870114 -1.44131
1932.11 0.0850153 0.0865383 -0.461703
1932.21 0.0879134 0.0860827 0.537165
1932.31 0.0900399 0.085644 1.29023
1932.41 0.0784774 0.0852216 -2.09583
1932.51 0.0879035 0.0848148 0.932834
1932.61 0.0844318 0.0844232 0.00260677
1932.71 0.0799523 0.084046 -1.2691
1932.81 0.0801616 0.0836828 -1.10095
1932.91 0.0791708 0.0833331 -1.29709
1933.01 0.0790367 0.0829963 -1.2299
1933.11 0.0806494 0.0826721 -0.624615
1933.21 0.0804737 0.0823598 -0.585181
1933.31 0.0801628 0.0820592 -0.593598
1933.41 0.0838441 0.0817697 0.637812
1933.51 0.0805166 0.0814909 -0.30323
1933.61 0.084673 0.0812224 1.04211
1933.71 0.0770736 0.0809639 -1.23189
1933.81 0.075385 0.080715 -1.70328
1933.91 0.0764169 0.0804753 -1.28716
1934.01 0.0746808 0.0802445 -1.78281
1934.11 0.0770931 0.0800223 -0.937316
1934.21 0.0793528 0.0798083 -0.142308
1934.31 0.0810391 0.0796022 0.445363
1934.41 0.076874 0.0794038 -0.81767
1934.51 0.085104 0.0792128 1.78727
1934.61 0.0807097 0.0790288 0.530833
1934.71 0.0782419 0.0788516 -0.189761
1934.81 0.0790071 0.078681 0.103315
1934.91 0.0774631 0.0785167 -0.334705
1935.01 0.0829085 0.0783586 1.41544
1935.11 0.0768196 0.0782062 -0.445007
1935.21 0.0845116 0.0780596 1.98025
1935.31 0.0789727 0.0779183 0.335688
1935.41 0.0808778 0.0777824 0.967582
1935.51 0.0823932 0.0776514 1.47165
1935.61 0.0776765 0.0775253 0.0478572
1935.71 0.0828594 0.0774039 1.68405
1935.81 0.0819584 0.077287 1.46568
1935.91 0.0763828 0.0771744 -0.250561
1936.01 0.077042 0.077066 -0.00756533
1936.11 0.0779355 0.0769616 0.31055
1936.21 0.0721869 0.0768611 -1.4866
1936.31 0.0778026 0.0767643 0.330144
1936.41 0.076388 0.0766711 -0.0901003
1936.51 0.0750802 0.0765813 -0.487768
1936.61 0.0759625 0.0764949 -0.170917
1936.71 0.0736051 0.0764117 -0.902177
1936.81 0.0777935 0.0763315 0.47212
1936.91 0.0768388 0.0762544 0.186591
1937.01 0.0807327 0.0761801 1.44286
1937.11 0.077841 0.0761085 0.542328
1937.21 0.0802693 0.0760396 1.3174
1937.31 0.0741668 0.0759733 -0.590592
1937.41 0.080149 0.0759094 1.34484
1937.51 0.0769498 0.0758479 0.348754
1937.61 0.0801713 0.0757887 1.35922
1937.71 0.081806 0.0757316 1.90056
1937.81 0.0743615 0.0756767 -0.421284
1937.91 0.0778694 0.0756238 0.727583
1938.01 0.0777702 0.0755729 0.684808
1938.11 0.0822014 0.0755239 2.10138
1938.21 0.0775696 0.0754767 0.663752
1938.31 0.0779749 0.0754312 0.798848
1938.41 0.0810583 0.0753874 1.74907
1938.51 0.0753597 0.0753452 0.00461493
1938.61 0.0739642 0.0753047 -0.439934
1938.71 0.0737998 0.0752656 -0.480097
1938.81 0.0730895 0.0752279 -0.706362
1938.91 0.076819 0.0751917 0.524625
1939.01 0.078015 0.0751568 0.91664
1939.11 0.0774639 0.0751232 0.746892
1939.21 0.0714058 0.0750908 -1.21128
1939.31 0.07375 0.0750596 -0.43184
1939.41 0.0758721 0.0750296 0.271144
1939.51 0.0747924 0.0750007 -0.0676985
1939.61 0.0772324 0.0749729 0.70996
1939.71 0.0716513 0.0749461 -1.09033
1939.81 0.0686693 0.0749203 -2.09882
1939.91 0.0767091 0.0748955 0.569317
1940.01 0.0715053 0.0748716 -1.10093
1940.11 0.0771552 0.0748485 0.736743
1940.21 0.072416 0.0748264 -0.805447
1940.31 0.074537 0.074805 -0.0876864
1940.41 0.0753713 0.0747844 0.189853
1940.51 0.0697316 0.0747646 -1.7116
1940.61 0.0722136 0.0747456 -0.834684
1940.71 0.076068 0.0747272 0.436678
1940.81 0.0747207 0.0747095 0.00353542
1940.91 0.0783285 0.0746925 1.15553
1941.01 0.0728113 0.0746761 -0.607758
1941.11 0.0751355 0.0746603 0.155889
1941.21 0.0717035 0.0746451 -0.980069
1941.31 0.0763464 0.0746305 0.553898
1941.41 0.0732076 0.0746164 -0.456948
1941.51 0.0738591 0.0746028 -0.239812
1941.61 0.0739624 0.0745898 -0.204826
1941.71 0.0747835 0.0745772 0.0665124
1941.81 0.0760022 0.074565 0.462251
1941.91 0.0708868 0.0745534 -1.21633
1942.01 0.0737666 0.0745421 -0.252747
1942.11 0.0732432 0.0745313 -0.421252
1942.21 0.0708943 0.0745209 -1.20272
1942.31 0.0691484 0.0745109 -1.80443
1942.41 0.0688416 0.0745012 -1.88091
1942.51 0.0734721 0.0744919 -0.332797
1942.61 0.0762052 0.074483 0.554701
1942.71 0.0690337 0.0744743 -1.83353
1942.81 0.0715135 0.074466 -0.969265
1942.91 0.075379 0.074458 0.300261
1943.01 0.073829 0.0744503 -0.202191
1943.11 0.0733317 0.0744429 -0.36607
1943.21 0.0726829 0.0744358 -0.57826
1943.31 0.0773716 0.0744289 0.928559
1943.41 0.0730202 0.0744223 -0.460413
1943.51 0.0739196 0.0744159 -0.163132
1943.61 0.0712655 0.0744098 -1.05058
1943.71 0.0785517 0.0744039 1.31928
1943.81 0.0818434 0.0743982 2.33292
1943.91 0.0711986 0.0743927 -1.06772
1944.01 0.069317 0.0743874 -1.69075
1944.11 0.0776888 0.0743823 1.06015
1944.21 0.0776199 0.0743774 1.03625
1944.31 0.0734513 0.0743727 -0.293522
1944.41 0.0771322 0.0743682 0.884663
1944.51 0.0774396 0.0743638 0.982445
1944.61 0.0723057 0.0743596 -0.67589
1944.71 0.0720476 0.0743555 -0.765435
1944.81 0.0738088 0.0743516 -0.177124
1944.91 0.0756337 0.0743479 0.411665
