# Data from DA_130514_E5.h5 stim 1
# Ratiometric estimator mono-exponential fit
# Fitted model Ca = baseline+delta*exp(-(t-t0)/tau)
# nobs = 179
# number of degrees of freedom = 176
# baseline length = 7
# fit started from point 28
# estimated baseline 0.0771418 and standard error 0.000478628
# estimated delta 0.0568142 and standard error 0.00230458
# estimated tau 2.26968 and standard error 0.143607
# residual sum of squares: 173.056
# RSS per degree of freedom: 0.983272
# Probability of observing a larger of equal RSS per DOF under the null hypothesis: 0.548635

# rss per degree of freedom: 0.983272

# Time    Ca  Prediction  Residual
1535.02 0.0839634 0.0771418 1.46747
1535.12 0.0718527 0.0771418 -1.19179
1535.21 0.0727491 0.0771418 -1.00357
1535.31 0.0745361 0.0771418 -0.583976
1535.41 0.0864315 0.0771418 1.93437
1535.51 0.0832255 0.0771418 1.29807
1535.61 0.0740543 0.0771418 -0.705211

1537.81 0.127705 0.133956 -1.04348
1537.91 0.135919 0.131507 0.711119
1538.01 0.138036 0.129164 1.41569
1538.11 0.123681 0.126922 -0.557052
1538.21 0.126625 0.124776 0.31514
1538.31 0.12659 0.122723 0.649895
1538.41 0.118141 0.120758 -0.45359
1538.51 0.123704 0.118878 0.831868
1538.61 0.110244 0.117079 -1.23878
1538.71 0.110663 0.115358 -0.86568
1538.81 0.119299 0.113711 0.994055
1538.91 0.117468 0.112134 0.942514
1539.01 0.114247 0.110626 0.643334
1539.11 0.10794 0.109183 -0.233565
1539.21 0.0964383 0.107802 -2.20711
1539.31 0.113577 0.10648 1.29229
1539.41 0.109363 0.105216 0.760166
1539.51 0.109143 0.104006 0.944116
1539.61 0.107502 0.102848 0.858157
1539.71 0.0943314 0.10174 -1.50037
1539.81 0.0996939 0.10068 -0.195159
1539.91 0.0967301 0.099665 -0.59383
1540.01 0.099847 0.0986942 0.223801
1540.11 0.0899264 0.0977652 -1.62825
1540.21 0.0903798 0.0968763 -1.33406
1540.31 0.0897596 0.0960257 -1.31237
1540.41 0.0857474 0.0952118 -1.96857
1540.51 0.100148 0.0944329 1.12342
1540.61 0.0943175 0.0936876 0.126369
1540.71 0.0925064 0.0929745 -0.0958737
1540.81 0.0955697 0.092292 0.660756
1540.91 0.0952367 0.091639 0.714451
1541.01 0.0912434 0.0910141 0.0456975
1541.11 0.0889184 0.0904162 -0.304149
1541.21 0.0867798 0.0898441 -0.646161
1541.31 0.0892784 0.0892966 -0.00373197
1541.41 0.0938873 0.0887726 1.03978
1541.51 0.0907943 0.0882713 0.514108
1541.61 0.089463 0.0877916 0.34577
1541.71 0.0814924 0.0873326 -1.26962
1541.81 0.0920593 0.0868933 1.06489
1541.91 0.0879987 0.086473 0.320499
1542.01 0.0831755 0.0860708 -0.62392
1542.11 0.0880698 0.085686 0.496138
1542.21 0.0871599 0.0853177 0.382583
1542.31 0.0823933 0.0849653 -0.553036
1542.41 0.0902174 0.0846281 1.14416
1542.51 0.0828252 0.0843054 -0.319113
1542.61 0.0863859 0.0839966 0.50647
1542.71 0.0837333 0.0837012 0.00688437
1542.81 0.0898989 0.0834184 1.33937
1542.91 0.0876438 0.0831479 0.931117
1543.01 0.0890243 0.082889 1.26135
1543.11 0.0859079 0.0826413 0.693089
1543.21 0.0860084 0.0824043 0.755337
1543.31 0.0832685 0.0821774 0.232885
1543.41 0.0853401 0.0819604 0.73218
1543.51 0.0753423 0.0817527 -1.42721
1543.61 0.0849011 0.0815539 0.713197
1543.71 0.085228 0.0813638 0.833008
1543.81 0.0826504 0.0811818 0.317233
1543.91 0.0819795 0.0810077 0.211439
1544.01 0.0718092 0.080841 -2.06228
1544.11 0.0818737 0.0806816 0.259527
1544.21 0.0852423 0.080529 1.00169
1544.31 0.0827066 0.080383 0.504706
1544.41 0.0706562 0.0802433 -2.24199
1544.51 0.0775917 0.0801096 -0.549305
1544.61 0.0749941 0.0799817 -1.137
1544.71 0.0775828 0.0798593 -0.499367
1544.81 0.0790643 0.0797422 -0.149899
1544.91 0.085401 0.0796301 1.23661
1545.01 0.0896513 0.0795228 2.13922
1545.11 0.0759678 0.0794202 -0.785673
1545.21 0.0820853 0.079322 0.606815
1545.31 0.0726388 0.079228 -1.53753
1545.41 0.0723341 0.0791381 -1.53056
1545.51 0.0772776 0.0790521 -0.392482
1545.61 0.0826947 0.0789697 0.806227
1545.71 0.0816121 0.0788909 0.586057
1545.81 0.0780193 0.0788155 -0.178268
1545.91 0.0758845 0.0787434 -0.629952
1546.01 0.0726607 0.0786744 -1.3764
1546.11 0.0832552 0.0786083 1.02472
1546.21 0.0842887 0.0785451 1.21062
1546.31 0.076065 0.0784846 -0.547807
1546.41 0.0702987 0.0784267 -1.88998
1546.51 0.0739575 0.0783713 -1.0053
1546.61 0.0770423 0.0783183 -0.288311
1546.71 0.0776522 0.0782676 -0.133648
1546.81 0.0780681 0.0782191 -0.0339967
1546.91 0.0805035 0.0781727 0.514235
1547.01 0.0841879 0.0781282 1.32685
1547.11 0.0810575 0.0780857 0.638849
1547.21 0.0781641 0.078045 0.026487
1547.31 0.0780602 0.0780061 0.0121322
1547.41 0.0744225 0.0779688 -0.815253
1547.51 0.0804977 0.0779332 0.556249
1547.61 0.0846542 0.0778991 1.43685
1547.71 0.081268 0.0778664 0.753407
1547.81 0.0806693 0.0778352 0.622115
1547.91 0.0860663 0.0778053 1.80098
1548.01 0.0798567 0.0777767 0.4548
1548.11 0.07946 0.0777494 0.383435
1548.21 0.0770215 0.0777232 -0.157213
1548.31 0.0777976 0.0776981 0.0222976
1548.41 0.0810567 0.0776741 0.727583
1548.51 0.0770377 0.0776512 -0.136572
1548.61 0.0812828 0.0776292 0.812743
1548.71 0.0755494 0.0776082 -0.468576
1548.81 0.0753961 0.0775881 -0.499397
1548.91 0.0885198 0.0775689 2.29596
1549.01 0.0800998 0.0775505 0.557168
1549.11 0.0799803 0.0775328 0.541954
1549.21 0.075379 0.077516 -0.488443
1549.31 0.0658306 0.0774999 -2.81753
1549.41 0.0772728 0.0774844 -0.0481162
1549.51 0.0764276 0.0774697 -0.235928
1549.61 0.0793996 0.0774555 0.434314
1549.71 0.0836594 0.077442 1.37453
1549.81 0.0790207 0.0774291 0.352728
1549.91 0.0785752 0.0774167 0.251836
1550.01 0.0713674 0.0774048 -1.38593
1550.11 0.0702876 0.0773935 -1.6572
1550.21 0.0737445 0.0773826 -0.839305
1550.31 0.0733687 0.0773723 -0.932396
1550.41 0.0736483 0.0773623 -0.853832
1550.51 0.0789691 0.0773528 0.369264
1550.61 0.0753285 0.0773437 -0.459152
1550.71 0.072143 0.077335 -1.21513
1550.81 0.0727581 0.0773267 -1.04788
1550.91 0.081754 0.0773187 0.975335
1551.01 0.0754916 0.0773111 -0.406779
1551.11 0.077588 0.0773038 0.0645084
1551.21 0.0835506 0.0772968 1.35867
1551.31 0.0777668 0.0772901 0.107283
1551.41 0.0686077 0.0772837 -2.05478
1551.51 0.0785198 0.0772776 0.275355
1551.61 0.0828043 0.0772718 1.20915
1551.71 0.0771215 0.0772662 -0.0330817
1551.81 0.0782376 0.0772608 0.218562
1551.91 0.0726387 0.0772557 -1.05964
1552.01 0.0685525 0.0772508 -2.04366
1552.11 0.0817312 0.0772461 1.00069
1552.21 0.0733107 0.0772416 -0.909772
1552.31 0.0767048 0.0772373 -0.12007
1552.41 0.086913 0.0772332 2.06995
1552.51 0.0771836 0.0772292 -0.0103024
1552.61 0.0838181 0.0772254 1.42406
1552.71 0.0760828 0.0772218 -0.259256
1552.81 0.0800518 0.0772184 0.630493
1552.91 0.0725987 0.0772151 -1.05784
1553.01 0.0702215 0.0772119 -1.63369
1553.11 0.0810945 0.0772089 0.861904
1553.21 0.0845628 0.077206 1.5894
1553.31 0.0814204 0.0772032 0.924602
1553.41 0.0819014 0.0772006 1.04391
1553.51 0.0732808 0.0771981 -0.899257
1553.61 0.0796528 0.0771956 0.547767
1553.71 0.0764469 0.0771933 -0.169941
1553.81 0.0767152 0.0771911 -0.10837
1553.91 0.0705833 0.077189 -1.56248
1554.01 0.0774713 0.0771869 0.0632756
1554.11 0.0775067 0.077185 0.0726213
1554.21 0.0728741 0.0771831 -1.00124
1554.31 0.0764675 0.0771813 -0.16009
1554.41 0.0785691 0.0771796 0.314544
1554.51 0.0780062 0.077178 0.189965
1554.61 0.075241 0.0771764 -0.438612
1554.71 0.0812238 0.0771749 0.913931
1554.81 0.0740278 0.0771735 -0.73262
1554.91 0.0801295 0.0771722 0.64782
