# Data from DA_120913_E7.h5 stim 4
# Ratiometric estimator mono-exponential fit
# Fitted model Ca = baseline+delta*exp(-(t-t0)/tau)
# nobs = 178
# number of degrees of freedom = 175
# baseline length = 7
# fit started from point 29
# estimated baseline 0.0265472 and standard error 0.000143812
# estimated delta 0.01219 and standard error 0.000412535
# estimated tau 6.2297 and standard error 0.407447
# residual sum of squares: 210.162
# RSS per degree of freedom: 1.20093
# Probability of observing a larger of equal RSS per DOF under the null hypothesis: 0.0357996

# rss per degree of freedom: 1.20093

# Time    Ca  Prediction  Residual
991.882 0.0295936 0.0265472 2.69673
992.082 0.0291528 0.0265472 2.31476
992.282 0.0295263 0.0265472 2.63533
992.482 0.0298642 0.0265472 2.90607
992.682 0.0294445 0.0265472 2.56394
992.882 0.0299256 0.0265472 2.98716
993.082 0.0314811 0.0265472 4.34908

997.682 0.0376854 0.0387372 -0.871424
997.882 0.0389431 0.0383521 0.486074
998.082 0.0392004 0.0379791 1.0003
998.282 0.0380798 0.0376179 0.38634
998.482 0.0363346 0.0372682 -0.78125
998.682 0.0354069 0.0369294 -1.2649
998.882 0.0351709 0.0366014 -1.21395
999.082 0.0360686 0.0362838 -0.179852
999.282 0.0371299 0.0359761 0.970286
999.482 0.0372203 0.0356782 1.28923
999.682 0.0370576 0.0353897 1.38121
999.882 0.0360476 0.0351104 0.783367
1000.08 0.0350242 0.0348398 0.15739
1000.28 0.0337715 0.0345778 -0.681236
1000.48 0.0356826 0.0343241 1.14932
1000.68 0.0329907 0.0340784 -0.936528
1000.88 0.0342057 0.0338405 0.308971
1001.08 0.0327188 0.03361 -0.761478
1001.28 0.0348761 0.0333869 1.27602
1001.48 0.0339499 0.0331708 0.668488
1001.68 0.034288 0.0329615 1.14399
1001.88 0.0314376 0.0327589 -1.15058
1002.08 0.0305727 0.0325626 -1.77864
1002.28 0.0316917 0.0323726 -0.594616
1002.48 0.0304059 0.0321885 -1.58242
1002.68 0.031948 0.0320103 -0.0537574
1002.88 0.0296463 0.0318377 -1.94758
1003.08 0.0298913 0.0316705 -1.56416
1003.28 0.0322582 0.0315087 0.649724
1003.48 0.0324639 0.0313519 0.971666
1003.68 0.0308263 0.0312001 -0.324395
1003.88 0.030498 0.0310531 -0.478342
1004.08 0.0302862 0.0309107 -0.5525
1004.28 0.0316642 0.0307729 0.771346
1004.48 0.0302841 0.0306394 -0.311195
1004.68 0.0313292 0.0305101 0.718819
1004.88 0.0312082 0.0303849 0.713495
1005.08 0.0301218 0.0302636 -0.125155
1005.28 0.0327187 0.0301462 2.21503
1005.48 0.029069 0.0300325 -0.857809
1005.68 0.0288768 0.0299224 -0.930849
1005.88 0.0292617 0.0298157 -0.488352
1006.08 0.0309721 0.0297125 1.09376
1006.28 0.0289569 0.0296125 -0.576554
1006.48 0.0275444 0.0295156 -1.75413
1006.68 0.0297302 0.0294218 0.268327
1006.88 0.0290794 0.029331 -0.225736
1007.08 0.0304379 0.0292431 1.04757
1007.28 0.0304636 0.0291579 1.14437
1007.48 0.0296164 0.0290754 0.48117
1007.68 0.0293718 0.0289955 0.331758
1007.88 0.0279501 0.0289182 -0.861423
1008.08 0.0290622 0.0288433 0.193203
1008.28 0.0304746 0.0287707 1.4847
1008.48 0.0280536 0.0287005 -0.578225
1008.68 0.0287819 0.0286325 0.133432
1008.88 0.0285663 0.0285666 -0.000279189
1009.08 0.0301929 0.0285028 1.48735
1009.28 0.0308752 0.028441 2.13762
1009.48 0.0297535 0.0283812 1.20625
1009.68 0.0276464 0.0283232 -0.604041
1009.88 0.0298859 0.0282671 1.43498
1010.08 0.0281482 0.0282128 -0.0582715
1010.28 0.025958 0.0281601 -1.99446
1010.48 0.0291468 0.0281092 0.923602
1010.68 0.0278121 0.0280598 -0.226223
1010.88 0.0283423 0.028012 0.291984
1011.08 0.027617 0.0279658 -0.316893
1011.28 0.0280397 0.0279209 0.105012
1011.48 0.0293508 0.0278775 1.31036
1011.68 0.0281396 0.0278355 0.272382
1011.88 0.0272162 0.0277948 -0.52326
1012.08 0.0278461 0.0277554 0.0823928
1012.28 0.0265858 0.0277172 -1.03024
1012.48 0.0268474 0.0276803 -0.760956
1012.68 0.0286484 0.0276445 0.887973
1012.88 0.0285279 0.0276098 0.821684
1013.08 0.0287949 0.0275762 1.08104
1013.28 0.0270041 0.0275437 -0.486267
1013.48 0.0274284 0.0275122 -0.0757312
1013.68 0.0284279 0.0274817 0.834859
1013.88 0.026547 0.0274522 -0.816596
1014.08 0.0280479 0.0274236 0.561927
1014.28 0.0270778 0.0273959 -0.281646
1014.48 0.027106 0.0273691 -0.238515
1014.68 0.0266636 0.0273431 -0.61291
1014.88 0.0274569 0.027318 0.125646
1015.08 0.0281739 0.0272936 0.779828
1015.28 0.0263307 0.0272701 -0.846201
1015.48 0.0271299 0.0272472 -0.106061
1015.68 0.0265601 0.0272251 -0.601308
1015.88 0.0285422 0.0272037 1.20412
1016.08 0.0269644 0.027183 -0.195237
1016.28 0.0268955 0.0271629 -0.239544
1016.48 0.0266769 0.0271434 -0.423782
1016.68 0.026388 0.0271246 -0.675449
1016.88 0.0288873 0.0271063 1.57496
1017.08 0.0265735 0.0270887 -0.461261
1017.28 0.0256933 0.0270716 -1.2588
1017.48 0.0268969 0.027055 -0.141795
1017.68 0.0249186 0.027039 -1.97672
1017.88 0.0259125 0.0270234 -0.996242
1018.08 0.0267996 0.0270084 -0.190879
1018.28 0.026769 0.0269938 -0.202514
1018.48 0.0259877 0.0269797 -0.893716
1018.68 0.0261119 0.026966 -0.765474
1018.88 0.0290203 0.0269528 1.82563
1019.08 0.0289667 0.02694 1.81835
1019.28 0.0281593 0.0269276 1.11
1019.48 0.0272926 0.0269156 0.343326
1019.68 0.0272956 0.0269039 0.3516
1019.88 0.0272821 0.0268927 0.352612
1020.08 0.0274497 0.0268817 0.511968
1020.28 0.0252397 0.0268712 -1.50479
1020.48 0.0271518 0.0268609 0.265732
1020.68 0.0282627 0.026851 1.27007
1020.88 0.0262051 0.0268414 -0.584453
1021.08 0.0276784 0.0268321 0.757545
1021.28 0.026966 0.0268231 0.129763
1021.48 0.0266606 0.0268144 -0.139186
1021.68 0.0272892 0.026806 0.425606
1021.88 0.0278314 0.0267978 0.923864
1022.08 0.0252752 0.0267899 -1.39217
1022.28 0.0264267 0.0267822 -0.326641
1022.48 0.0263959 0.0267748 -0.346041
1022.68 0.026353 0.0267676 -0.378447
1022.88 0.0260384 0.0267606 -0.671398
1023.08 0.027608 0.0267539 0.770673
1023.28 0.0260628 0.0267474 -0.626428
1023.48 0.0268463 0.026741 0.0938487
1023.68 0.0263994 0.0267349 -0.305248
1023.88 0.0275117 0.026729 0.698143
1024.08 0.0268887 0.0267232 0.152187
1024.28 0.0250567 0.0267177 -1.54152
1024.48 0.0257996 0.0267123 -0.830656
1024.68 0.0265154 0.0267071 -0.173988
1024.88 0.0272323 0.026702 0.47453
1025.08 0.0265986 0.0266971 -0.0897225
1025.28 0.0251549 0.0266924 -1.40632
1025.48 0.0270409 0.0266878 0.31916
1025.68 0.0253514 0.0266834 -1.22243
1025.88 0.0251247 0.0266791 -1.42129
1026.08 0.0251714 0.0266749 -1.37883
1026.28 0.0263974 0.0266709 -0.247726
1026.48 0.0266196 0.026667 -0.0432721
1026.68 0.0267467 0.0266632 0.0749966
1026.88 0.0242103 0.0266595 -2.25899
1027.08 0.0275677 0.026656 0.819769
1027.28 0.0269389 0.0266525 0.260028
1027.48 0.0258474 0.0266492 -0.730686
1027.68 0.0268144 0.026646 0.153189
1027.88 0.0263495 0.0266429 -0.267245
1028.08 0.0266612 0.0266398 0.019545
1028.28 0.0259026 0.0266369 -0.671292
1028.48 0.026559 0.0266341 -0.0670644
1028.68 0.0261732 0.0266313 -0.416535
1028.88 0.0271608 0.0266287 0.48409
1029.08 0.0248386 0.0266261 -1.64783
1029.28 0.0253169 0.0266236 -1.19979
1029.48 0.0253926 0.0266212 -1.12758
1029.68 0.0259276 0.0266189 -0.633323
1029.88 0.0245996 0.0266166 -1.84346
1030.08 0.0256662 0.0266144 -0.858319
1030.28 0.026098 0.0266123 -0.468182
1030.48 0.0272543 0.0266102 0.570564
1030.68 0.0263742 0.0266082 -0.212553
1030.88 0.0249159 0.0266063 -1.56031
1031.08 0.0264009 0.0266044 -0.18428
1031.28 0.0258603 0.0266026 -0.680595
1031.48 0.0256865 0.0266009 -0.835542
1031.68 0.0241957 0.0265992 -2.19848
