# Data from DA_120913_E7.h5 stim 3
# Ratiometric estimator mono-exponential fit
# Fitted model Ca = baseline+delta*exp(-(t-t0)/tau)
# nobs = 154
# number of degrees of freedom = 151
# baseline length = 7
# fit started from point 53
# estimated baseline 0.0287479 and standard error 0.000263838
# estimated delta 0.0159997 and standard error 0.000403451
# estimated tau 4.38565 and standard error 0.274299
# residual sum of squares: 179.146
# RSS per degree of freedom: 1.1864
# Probability of observing a larger of equal RSS per DOF under the null hypothesis: 0.0586175

# rss per degree of freedom: 1.1864

# Time    Ca  Prediction  Residual
671.261 0.0310353 0.0287479 1.87804
671.361 0.0315866 0.0287479 2.31267
671.461 0.0312821 0.0287479 2.0791
671.561 0.0324246 0.0287479 2.9543
671.661 0.0296813 0.0287479 0.77356
671.761 0.0311724 0.0287479 1.99508
671.861 0.0309114 0.0287479 1.79212

676.561 0.0423642 0.0447477 -1.80182
676.661 0.043259 0.044387 -0.831071
676.761 0.0425009 0.0440344 -1.152
676.861 0.0428623 0.0436898 -0.618887
676.961 0.0430578 0.043353 -0.220525
677.061 0.0409871 0.0430237 -1.55112
677.161 0.0413477 0.0427019 -1.01391
677.261 0.0435049 0.0423873 0.819814
677.361 0.0420896 0.0420798 0.0073387
677.461 0.0423689 0.0417793 0.439918
677.561 0.0422427 0.0414855 0.565257
677.661 0.0396464 0.0411984 -1.19264
677.761 0.0409492 0.0409177 0.0238178
677.861 0.0414124 0.0406433 0.579619
677.961 0.0416441 0.0403752 0.954012
678.061 0.0395597 0.040113 -0.427196
678.161 0.0414568 0.0398568 1.21651
678.261 0.0389658 0.0396064 -0.488173
678.361 0.0409603 0.0393616 1.20331
678.461 0.0395585 0.0391223 0.330838
678.561 0.0406978 0.0388885 1.36378
678.661 0.0377809 0.0386598 -0.67155
678.761 0.0388126 0.0384364 0.292597
678.861 0.0365949 0.038218 -1.27572
678.961 0.0398283 0.0380045 1.3936
679.061 0.0384892 0.0377958 0.542087
679.161 0.0386275 0.0375918 0.794499
679.261 0.0379032 0.0373925 0.393492
679.361 0.0376485 0.0371976 0.348389
679.461 0.0401541 0.0370071 2.39621
679.561 0.0371357 0.0368209 0.245589
679.661 0.0348994 0.0366389 -1.39229
679.761 0.0392101 0.036461 2.09072
679.861 0.0354104 0.0362871 -0.690737
679.961 0.0388606 0.0361172 2.11051
680.061 0.0394786 0.0359511 2.6945
680.161 0.0349867 0.0357887 -0.629978
680.261 0.0349732 0.0356299 -0.522282
680.361 0.0364072 0.0354748 0.73674
680.461 0.0357931 0.0353232 0.36845
680.561 0.0348413 0.0351749 -0.265355
680.661 0.0337667 0.03503 -1.02229
680.761 0.0368882 0.0348884 1.55053
680.861 0.0361811 0.03475 1.13737
680.961 0.0338285 0.0346147 -0.619727
681.061 0.0342988 0.0344824 -0.146677
681.161 0.034419 0.0343531 0.0526555
681.261 0.0340533 0.0342268 -0.139469
681.361 0.0348928 0.0341033 0.63538
681.461 0.0348089 0.0339825 0.662712
681.561 0.0346866 0.0338645 0.658141
681.661 0.0332743 0.0337492 -0.377431
681.761 0.0355065 0.0336364 1.47906
681.861 0.0330176 0.0335262 -0.407433
681.961 0.0302312 0.0334185 -2.60947
682.061 0.0338705 0.0333132 0.447681
682.161 0.0340272 0.0332103 0.64589
682.261 0.0331917 0.0331097 0.0657905
682.361 0.0331422 0.0330114 0.10563
682.461 0.0331551 0.0329153 0.189024
682.561 0.0338399 0.0328213 0.818524
682.661 0.0331146 0.0327295 0.309888
682.761 0.0314021 0.0326397 -1.01416
682.861 0.0321892 0.032552 -0.293386
682.961 0.031333 0.0324662 -0.917485
683.061 0.0305652 0.0323824 -1.49867
683.161 0.0327242 0.0323005 0.3429
683.261 0.03194 0.0322204 -0.229377
683.361 0.0316799 0.0321421 -0.373828
683.461 0.0324334 0.0320656 0.296668
683.561 0.0340102 0.0319908 1.62271
683.661 0.0297695 0.0319177 -1.79074
683.761 0.0308175 0.0318462 -0.841498
683.861 0.0335132 0.0317764 1.37896
683.961 0.0321808 0.0317081 0.384763
684.061 0.0314383 0.0316414 -0.165508
684.161 0.0312127 0.0315761 -0.302759
684.261 0.0294681 0.0315124 -1.67398
684.361 0.0332493 0.0314501 1.4735
684.461 0.0308954 0.0313892 -0.403359
684.561 0.0296539 0.0313296 -1.3711
684.661 0.0317318 0.0312714 0.370475
684.761 0.0317764 0.0312145 0.454081
684.861 0.03217 0.0311589 0.82465
684.961 0.0297122 0.0311046 -1.16646
685.061 0.030745 0.0310514 -0.253406
685.161 0.0302889 0.0309995 -0.584869
685.261 0.0329992 0.0309487 1.66279
685.361 0.0312369 0.0308991 0.276794
685.461 0.0300327 0.0308506 -0.677745
685.561 0.0308113 0.0308032 0.00670886
685.661 0.0306441 0.0307569 -0.0932592
685.761 0.0317139 0.0307116 0.823033
685.861 0.0306697 0.0306673 0.00194393
685.961 0.0299466 0.0306241 -0.563923
686.061 0.030425 0.0305818 -0.129316
686.161 0.0308781 0.0305404 0.271074
686.261 0.0290138 0.0305 -1.23077
686.361 0.0302634 0.0304605 -0.163163
686.461 0.0292229 0.0304219 -1.00604
686.561 0.029131 0.0303842 -1.04626
686.661 0.030181 0.0303473 -0.137883
686.761 0.0302801 0.0303112 -0.0263143
686.861 0.0291108 0.030276 -0.971542
686.961 0.0306587 0.0302415 0.345823
687.061 0.0307561 0.0302079 0.443212
687.161 0.0282748 0.030175 -1.5943
687.261 0.0305341 0.0301428 0.31903
687.361 0.0276654 0.0301113 -2.08749
687.461 0.0304521 0.0300806 0.308771
687.561 0.0292323 0.0300506 -0.67737
687.661 0.030585 0.0300212 0.463413
687.761 0.0302648 0.0299925 0.221814
687.861 0.0301743 0.0299644 0.17358
687.961 0.0270465 0.029937 -2.43501
688.061 0.0309571 0.0299102 0.858719
688.161 0.0296287 0.029884 -0.212527
688.261 0.0298155 0.0298584 -0.0354117
688.361 0.0296453 0.0298334 -0.156362
688.461 0.0287622 0.0298089 -0.878101
688.561 0.0301749 0.029785 0.324113
688.661 0.0303228 0.0297616 0.459573
688.761 0.029245 0.0297387 -0.409206
688.861 0.027929 0.0297164 -1.50249
688.961 0.0301396 0.0296946 0.366623
689.061 0.0304267 0.0296732 0.620615
689.161 0.0283786 0.0296524 -1.07184
689.261 0.0287025 0.029632 -0.77948
689.361 0.0311378 0.0296121 1.25982
689.461 0.0307698 0.0295926 0.973785
689.561 0.0286003 0.0295735 -0.800759
689.661 0.0276689 0.0295549 -1.59232
689.761 0.0277511 0.0295367 -1.50731
689.861 0.031152 0.0295189 1.33942
689.961 0.0292252 0.0295016 -0.230801
690.061 0.027355 0.0294846 -1.80288
690.161 0.030612 0.029468 0.950258
690.261 0.0287118 0.0294517 -0.616934
690.361 0.0312412 0.0294359 1.47261
690.461 0.0278131 0.0294204 -1.34726
690.561 0.0266607 0.0294052 -2.28811
690.661 0.0306458 0.0293904 1.03832
690.761 0.0271038 0.0293759 -1.93622
690.861 0.0294125 0.0293617 0.0418587
690.961 0.0283675 0.0293479 -0.824712
691.061 0.0291917 0.0293344 -0.118913
691.161 0.0281236 0.0293212 -0.990683
