# Data from DA_120913_E7.h5 stim 1
# Ratiometric estimator mono-exponential fit
# Fitted model Ca = baseline+delta*exp(-(t-t0)/tau)
# nobs = 175
# number of degrees of freedom = 172
# baseline length = 7
# fit started from point 32
# estimated baseline 0.0202758 and standard error 0.000189835
# estimated delta 0.0561449 and standard error 0.00116294
# estimated tau 1.91964 and standard error 0.0568146
# residual sum of squares: 173.543
# RSS per degree of freedom: 1.00897
# Probability of observing a larger of equal RSS per DOF under the null hypothesis: 0.45269

# rss per degree of freedom: 1.00897

# Time    Ca  Prediction  Residual
210.015 0.0178076 0.0202758 -1.27617
210.115 0.0208256 0.0202758 0.279139
210.215 0.0195623 0.0202758 -0.361667
210.315 0.0186395 0.0202758 -0.838201
210.415 0.0173143 0.0202758 -1.52891
210.515 0.0193216 0.0202758 -0.493499
210.615 0.0219759 0.0202758 0.86861

213.215 0.0805817 0.0764208 1.3844
213.315 0.0790566 0.0735709 1.84413
213.415 0.0669238 0.0708656 -1.40903
213.515 0.0676572 0.0682977 -0.232643
213.615 0.0691603 0.0658601 1.17295
213.715 0.0686025 0.0635463 1.85131
213.815 0.0594411 0.0613499 -0.730417
213.915 0.0569947 0.059265 -0.881044
214.015 0.0630016 0.0572859 2.13227
214.115 0.0528927 0.0554073 -1.01445
214.215 0.0551109 0.0536241 0.585908
214.315 0.0508612 0.0519313 -0.436378
214.415 0.0485591 0.0503245 -0.735096
214.515 0.0492472 0.0487992 0.183503
214.615 0.0430778 0.0473514 -1.81341
214.715 0.0437406 0.0459771 -0.969894
214.815 0.0426347 0.0446725 -0.892078
214.915 0.0421605 0.0434341 -0.556955
215.015 0.0402284 0.0422586 -0.896234
215.115 0.0406739 0.0411428 -0.210082
215.215 0.0388547 0.0400836 -0.549831
215.315 0.0365343 0.0390781 -1.17336
215.415 0.0351612 0.0381237 -1.34436
215.515 0.0393125 0.0372178 0.938652
215.615 0.0371309 0.0363578 0.348933
215.715 0.0354966 0.0355415 -0.0207871
215.815 0.031453 0.0347666 -1.59517
215.915 0.0287083 0.0340311 -2.55502
216.015 0.0353011 0.0333329 0.897628
216.115 0.0320544 0.0326701 -0.294157
216.215 0.0301285 0.032041 -0.913523
216.315 0.0290224 0.0314438 -1.16723
216.415 0.0318504 0.0308769 0.466316
216.515 0.0272435 0.0303388 -1.49535
216.615 0.0298236 0.029828 -0.00212685
216.715 0.0317666 0.0293431 1.15257
216.815 0.029784 0.0288829 0.437784
216.915 0.027863 0.028446 -0.287497
217.015 0.0290479 0.0280313 0.49181
217.115 0.0284216 0.0276376 0.381231
217.215 0.0296057 0.0272639 1.12622
217.315 0.0305246 0.0269092 1.7305
217.415 0.0299208 0.0265725 1.60747
217.515 0.0278897 0.0262529 0.818021
217.615 0.0291969 0.0259495 1.58857
217.715 0.0294584 0.0256615 1.85336
217.815 0.0269791 0.0253881 0.789836
217.915 0.0241477 0.0251286 -0.502299
218.015 0.0297558 0.0248823 2.38123
218.115 0.02506 0.0246485 0.207336
218.215 0.0231884 0.0244265 -0.636384
218.315 0.0254726 0.0242158 0.635553
218.415 0.0232979 0.0240158 -0.371227
218.515 0.02845 0.023826 2.26919
218.615 0.0260421 0.0236458 1.21005
218.715 0.0238978 0.0234747 0.216612
218.815 0.0248765 0.0233124 0.792101
218.915 0.0218184 0.0231582 -0.694063
219.015 0.0252746 0.0230119 1.15271
219.115 0.0253836 0.022873 1.28253
219.215 0.0234924 0.0227412 0.38248
219.315 0.0250935 0.0226161 1.26467
219.415 0.0219308 0.0224973 -0.304022
219.515 0.0238305 0.0223845 0.739345
219.615 0.0191121 0.0222775 -1.69636
219.715 0.0196862 0.0221759 -1.31412
219.815 0.023254 0.0220794 0.612372
219.915 0.0221647 0.0219879 0.0928526
220.015 0.0209224 0.021901 -0.519927
220.115 0.0217763 0.0218185 -0.0222976
220.215 0.0230735 0.0217402 0.699774
220.315 0.0237051 0.0216658 1.06886
220.415 0.0236815 0.0215953 1.07493
220.515 0.0205691 0.0215283 -0.506487
220.615 0.0224983 0.0214647 0.537339
220.715 0.0219567 0.0214044 0.289392
220.815 0.0226648 0.0213471 0.690068
220.915 0.0186796 0.0212927 -1.38664
221.015 0.0224717 0.0212411 0.643742
221.115 0.0215476 0.0211921 0.187453
221.215 0.0193049 0.0211456 -0.964103
221.315 0.0213872 0.0211014 0.151317
221.415 0.0187085 0.0210595 -1.26386
221.515 0.0228535 0.0210198 0.957938
221.615 0.020016 0.020982 -0.51407
221.715 0.0225249 0.0209462 0.82323
221.815 0.0232779 0.0209121 1.24292
221.915 0.0196887 0.0208798 -0.640037
222.015 0.021151 0.0208492 0.161711
222.115 0.0201156 0.0208201 -0.372196
222.215 0.022652 0.0207924 0.967727
222.315 0.0184643 0.0207662 -1.25943
222.415 0.0194252 0.0207413 -0.713267
222.515 0.0199884 0.0207177 -0.390227
222.615 0.0229342 0.0206953 1.15909
222.715 0.0230296 0.020674 1.26081
222.815 0.0221419 0.0206538 0.780404
222.915 0.0195115 0.0206346 -0.617968
223.015 0.0195002 0.0206164 -0.590416
223.115 0.0199177 0.0205991 -0.37042
223.215 0.0201417 0.0205827 -0.236807
223.315 0.0245313 0.0205671 2.04403
223.415 0.0202722 0.0205523 -0.147633
223.515 0.0204888 0.0205383 -0.0264837
223.615 0.020889 0.020525 0.196221
223.715 0.0186341 0.0205123 -1.0401
223.815 0.0183123 0.0205003 -1.20866
223.915 0.0178124 0.0204889 -1.46573
224.015 0.0189483 0.0204781 -0.837466
224.115 0.0215323 0.0204678 0.566708
224.215 0.0211567 0.0204581 0.375601
224.315 0.0228043 0.0204488 1.27345
224.415 0.0194526 0.02044 -0.541376
224.515 0.0204849 0.0204317 0.0289676
224.615 0.0220907 0.0204238 0.887801
224.715 0.0216058 0.0204163 0.64343
224.815 0.0190238 0.0204092 -0.751907
224.915 0.0194948 0.0204024 -0.482727
225.015 0.0207706 0.020396 0.203187
225.115 0.0188209 0.0203899 -0.859758
225.215 0.0206216 0.0203841 0.130076
225.315 0.0228891 0.0203786 1.34855
225.415 0.0166158 0.0203734 -2.09308
225.515 0.0188425 0.0203684 -0.858373
225.615 0.0192596 0.0203637 -0.607396
225.715 0.0209058 0.0203593 0.297194
225.815 0.0233132 0.020355 1.55315
225.915 0.0200206 0.020351 -0.179688
226.015 0.0219303 0.0203472 0.840224
226.115 0.0181878 0.0203436 -1.20357
226.215 0.0177304 0.0203401 -1.46677
226.315 0.0231628 0.0203369 1.49069
226.415 0.0214598 0.0203338 0.610468
226.515 0.0201931 0.0203308 -0.074292
226.615 0.0249431 0.020328 2.42672
226.715 0.0227312 0.0203254 1.28339
226.815 0.0203815 0.0203229 0.0319042
226.915 0.0194028 0.0203205 -0.504113
227.015 0.0223185 0.0203182 1.07376
227.115 0.0182853 0.0203161 -1.11889
227.215 0.0199446 0.020314 -0.201505
227.315 0.0197123 0.0203121 -0.331656
227.415 0.0196931 0.0203102 -0.334769
227.515 0.01953 0.0203085 -0.429376
227.615 0.0193757 0.0203068 -0.515892
227.715 0.0186961 0.0203053 -0.88606
227.815 0.0177169 0.0203038 -1.43726
227.915 0.0196629 0.0203023 -0.352351
228.015 0.0211331 0.020301 0.450239
228.115 0.020579 0.0202997 0.153761
228.215 0.0209796 0.0202985 0.374887
228.315 0.0195017 0.0202974 -0.431153
228.415 0.0195595 0.0202963 -0.404307
228.515 0.0210225 0.0202952 0.397335
228.615 0.0149729 0.0202942 -3.03959
228.715 0.0222187 0.0202933 1.04288
228.815 0.0211064 0.0202924 0.446802
228.915 0.0185118 0.0202916 -0.996606
229.015 0.0207816 0.0202908 0.266956
229.115 0.0186298 0.02029 -0.92442
229.215 0.0209441 0.0202893 0.359273
229.315 0.0193972 0.0202886 -0.487024
229.415 0.0198964 0.020288 -0.217686
229.515 0.0211299 0.0202873 0.461653
229.615 0.0213235 0.0202868 0.563978
229.715 0.0204805 0.0202862 0.108631
229.815 0.0195444 0.0202857 -0.414518
229.915 0.0190005 0.0202852 -0.715438
