# Data from DA_120913_E7.h5 stim 2
# Ratiometric estimator mono-exponential fit
# Fitted model Ca = baseline+delta*exp(-(t-t0)/tau)
# nobs = 162
# number of degrees of freedom = 159
# baseline length = 7
# fit started from point 45
# estimated baseline 0.0230988 and standard error 0.000223063
# estimated delta 0.0250354 and standard error 0.000494898
# estimated tau 3.62301 and standard error 0.151921
# residual sum of squares: 198.984
# RSS per degree of freedom: 1.25147
# Probability of observing a larger of equal RSS per DOF under the null hypothesis: 0.0172396

# rss per degree of freedom: 1.25147

# Time    Ca  Prediction  Residual
410.639 0.0181823 0.0230988 -3.87884
410.739 0.0211142 0.0230988 -1.53167
410.839 0.0184166 0.0230988 -3.6965
410.939 0.0202312 0.0230988 -2.20468
411.039 0.0214326 0.0230988 -1.27831
411.139 0.0231386 0.0230988 0.0301516
411.239 0.0203028 0.0230988 -2.19534

415.139 0.0480106 0.0481342 -0.0762286
415.239 0.0451308 0.0474527 -1.47179
415.339 0.0449678 0.0467896 -1.17882
415.439 0.0464908 0.0461447 0.22071
415.539 0.048259 0.0455173 1.73768
415.639 0.045189 0.044907 0.179314
415.739 0.0440885 0.0443133 -0.146773
415.839 0.0460877 0.0437357 1.49914
415.939 0.0446118 0.0431739 0.935193
416.039 0.0443854 0.0426274 1.11664
416.139 0.0427709 0.0420957 0.442909
416.239 0.0417552 0.0415786 0.115381
416.339 0.041382 0.0410755 0.201956
416.439 0.0399464 0.0405861 -0.428354
416.539 0.0399279 0.04011 -0.120162
416.639 0.0411459 0.0396469 0.971835
416.739 0.0383146 0.0391964 -0.594382
416.839 0.0378756 0.0387582 -0.594332
416.939 0.037455 0.0383319 -0.59292
417.039 0.0370608 0.0379172 -0.587978
417.139 0.0373364 0.0375137 -0.119553
417.239 0.038239 0.0371213 0.7522
417.339 0.0357383 0.0367396 -0.688048
417.439 0.0367101 0.0363682 0.234006
417.539 0.0335021 0.036007 -1.76948
417.639 0.0360362 0.0356556 0.259046
417.739 0.0322862 0.0353137 -2.11667
417.839 0.0347173 0.0349812 -0.179971
417.939 0.0353863 0.0346577 0.500763
418.039 0.0366865 0.034343 1.58363
418.139 0.0359451 0.0340369 1.32697
418.239 0.0347284 0.0337391 0.689289
418.339 0.0329014 0.0334495 -0.38627
418.439 0.0327067 0.0331677 -0.327698
418.539 0.0338972 0.0328936 0.697148
418.639 0.0308977 0.0326269 -1.22848
418.739 0.0327734 0.0323675 0.285194
418.839 0.0321924 0.0321152 0.05445
418.939 0.0298676 0.0318697 -1.4448
419.039 0.0327151 0.0316309 0.766529
419.139 0.0323982 0.0313987 0.703237
419.239 0.0329593 0.0311727 1.2588
419.339 0.0292815 0.0309529 -1.20384
419.439 0.0324831 0.0307391 1.23254
419.539 0.0293913 0.0305311 -0.816107
419.639 0.0292097 0.0303288 -0.811912
419.739 0.0302924 0.0301319 0.116021
419.839 0.0303509 0.0299405 0.294501
419.939 0.0297887 0.0297542 0.0248583
420.039 0.0271623 0.029573 -1.80059
420.139 0.0294309 0.0293968 0.0244859
420.239 0.0281441 0.0292253 -0.795983
420.339 0.0287642 0.0290585 -0.212256
420.439 0.0281023 0.0288963 -0.579269
420.539 0.028064 0.0287384 -0.494979
420.639 0.0301912 0.0285849 1.1622
420.739 0.0266863 0.0284356 -1.31204
420.839 0.0274092 0.0282903 -0.651188
420.939 0.0281102 0.0281489 -0.0285878
421.039 0.027593 0.0280115 -0.304641
421.139 0.0260366 0.0278777 -1.36934
421.239 0.0282532 0.0277476 0.367325
421.339 0.0261816 0.0276211 -1.06499
421.439 0.0266776 0.0274979 -0.605069
421.539 0.0286492 0.0273782 0.91795
421.639 0.0296543 0.0272617 1.73251
421.739 0.0273756 0.0271483 0.168249
421.839 0.0272079 0.0270381 0.122725
421.939 0.0269708 0.0269309 0.0296135
422.039 0.0270487 0.0268265 0.164145
422.139 0.0267351 0.0267251 0.007516
422.239 0.02805 0.0266263 1.03902
422.339 0.0260571 0.0265303 -0.349687
422.439 0.0264957 0.0264369 0.0437986
422.539 0.0262694 0.026346 -0.057004
422.639 0.0247418 0.0262576 -1.14353
422.739 0.0282652 0.0261716 1.51215
422.839 0.024173 0.026088 -1.43144
422.939 0.027484 0.0260066 1.09562
423.039 0.0265537 0.0259274 0.469164
423.139 0.0261544 0.0258504 0.225201
423.239 0.0258499 0.0257755 0.0550266
423.339 0.0255848 0.0257026 -0.088364
423.439 0.0269469 0.0256317 0.965728
423.539 0.0282147 0.0255628 1.98275
423.639 0.0238036 0.0254957 -1.25888
423.739 0.0229354 0.0254305 -1.92488
423.839 0.026838 0.025367 1.08963
423.939 0.0249606 0.0253052 -0.256435
424.039 0.0259848 0.0252452 0.542427
424.139 0.026236 0.0251867 0.77806
424.239 0.0233628 0.0251299 -1.35462
424.339 0.0252635 0.0250746 0.142952
424.439 0.0239839 0.0250208 -0.792991
424.539 0.0232551 0.0249685 -1.31407
424.639 0.0257094 0.0249176 0.5943
424.739 0.027337 0.0248681 1.82087
424.839 0.0214598 0.0248199 -2.59679
424.939 0.0215537 0.0247731 -2.52103
425.039 0.0234754 0.0247275 -0.952288
425.139 0.0247919 0.0246831 0.0823247
425.239 0.0231432 0.02464 -1.14308
425.339 0.023578 0.024598 -0.784275
425.439 0.0242937 0.0245572 -0.19977
425.539 0.0278232 0.0245175 2.37771
425.639 0.024424 0.0244789 -0.0411629
425.739 0.0249008 0.0244413 0.34675
425.839 0.0245925 0.0244048 0.142968
425.939 0.0274783 0.0243692 2.30768
426.039 0.0244352 0.0243346 0.076672
426.139 0.024116 0.024301 -0.143886
426.239 0.0246835 0.0242683 0.314265
426.339 0.0235356 0.0242364 -0.538295
426.439 0.0254114 0.0242055 0.889809
426.539 0.0237815 0.0241753 -0.299451
426.639 0.0240573 0.024146 -0.0663888
426.739 0.0265324 0.0241175 1.81931
426.839 0.024727 0.0240898 0.486486
426.939 0.023624 0.0240628 -0.333509
427.039 0.0246005 0.0240366 0.425007
427.139 0.0235063 0.024011 -0.379884
427.239 0.0240158 0.0239862 0.0226014
427.339 0.0260067 0.023962 1.52601
427.439 0.0243948 0.0239385 0.346457
427.539 0.0258886 0.0239157 1.48051
427.639 0.0236303 0.0238934 -0.199986
427.739 0.024379 0.0238718 0.385108
427.839 0.0208287 0.0238508 -2.35049
427.939 0.0246307 0.0238303 0.610008
428.039 0.0242747 0.0238104 0.348228
428.139 0.0260767 0.023791 1.71274
428.239 0.0249647 0.0237722 0.896932
428.339 0.0228571 0.0237538 -0.689684
428.439 0.0236298 0.023736 -0.0806523
428.539 0.0243099 0.0237187 0.449737
428.639 0.023338 0.0237018 -0.278413
428.739 0.0227216 0.0236854 -0.745715
428.839 0.0229458 0.0236694 -0.556366
428.939 0.0241254 0.0236539 0.353235
429.039 0.024746 0.0236388 0.837986
429.139 0.0235252 0.0236241 -0.0755969
429.239 0.0259778 0.0236098 1.77614
429.339 0.0247334 0.0235958 0.867767
429.439 0.0256902 0.0235823 1.58529
429.539 0.0246319 0.0235691 0.812728
429.639 0.0233038 0.0235563 -0.191444
429.739 0.0241008 0.0235439 0.424547
429.839 0.0268567 0.0235318 2.48428
429.939 0.0261291 0.02352 1.93331
430.039 0.0244121 0.0235085 0.687108
430.139 0.0249131 0.0234974 1.07445
430.239 0.0236913 0.0234865 0.155685
430.339 0.025707 0.023476 1.68718
430.439 0.0228992 0.0234657 -0.434199
430.539 0.0253915 0.0234557 1.45306
