# Data from DA_121011_E3.h5 stim 3
# Ratiometric estimator mono-exponential fit
# Fitted model Ca = baseline+delta*exp(-(t-t0)/tau)
# nobs = 154
# number of degrees of freedom = 151
# baseline length = 7
# fit started from point 53
# estimated baseline 0.070116 and standard error 0.000549546
# estimated delta 0.0774127 and standard error 0.000869241
# estimated tau 4.92475 and standard error 0.129902
# residual sum of squares: 166.322
# RSS per degree of freedom: 1.10147
# Probability of observing a larger of equal RSS per DOF under the null hypothesis: 0.186317

# rss per degree of freedom: 1.10147

# Time    Ca  Prediction  Residual
1196.28 0.0763409 0.070116 2.82719
1196.38 0.0696699 0.070116 -0.210211
1196.47 0.071799 0.070116 0.784551
1196.57 0.0718042 0.070116 0.782985
1196.67 0.0730734 0.070116 1.37627
1196.77 0.073314 0.070116 1.48275
1196.87 0.0739225 0.070116 1.76267

1201.57 0.144278 0.147529 -0.991153
1201.67 0.146347 0.145973 0.111597
1201.77 0.144554 0.144448 0.0322341
1201.87 0.141118 0.142954 -0.567645
1201.97 0.140226 0.14149 -0.392728
1202.07 0.14073 0.140055 0.210364
1202.17 0.131042 0.138649 -2.45255
1202.27 0.141163 0.137272 1.1973
1202.37 0.139677 0.135922 1.17931
1202.47 0.132952 0.134599 -0.528828
1202.57 0.132802 0.133303 -0.162218
1202.67 0.130139 0.132033 -0.624565
1202.77 0.131484 0.130788 0.225361
1202.87 0.131241 0.129569 0.547274
1202.97 0.130646 0.128374 0.741441
1203.07 0.127582 0.127202 0.126756
1203.17 0.122462 0.126055 -1.23505
1203.27 0.123275 0.124931 -0.563179
1203.37 0.127824 0.123829 1.31581
1203.47 0.120575 0.122749 -0.742288
1203.57 0.119251 0.121691 -0.840778
1203.67 0.116457 0.120654 -1.46372
1203.77 0.120222 0.119639 0.205186
1203.87 0.119859 0.118643 0.421804
1203.97 0.119539 0.117668 0.651655
1204.07 0.114396 0.116712 -0.829132
1204.17 0.118477 0.115775 0.940898
1204.27 0.118614 0.114857 1.30086
1204.37 0.114806 0.113958 0.300503
1204.47 0.110631 0.113077 -0.892045
1204.57 0.113745 0.112213 0.549233
1204.67 0.113096 0.111367 0.625158
1204.77 0.108218 0.110538 -0.849353
1204.87 0.111327 0.109725 0.581954
1204.97 0.118546 0.108929 3.37025
1205.07 0.109389 0.108149 0.45767
1205.17 0.106512 0.107385 -0.324271
1205.27 0.105293 0.106635 -0.509212
1205.37 0.107668 0.105901 0.662379
1205.47 0.10484 0.105182 -0.128877
1205.57 0.100276 0.104477 -1.626
1205.67 0.102282 0.103786 -0.586339
1205.77 0.103971 0.10311 0.324926
1205.87 0.101092 0.102446 -0.528734
1205.97 0.106499 0.101797 1.74894
1206.07 0.0983193 0.10116 -1.11451
1206.17 0.096768 0.100536 -1.48889
1206.27 0.102221 0.0999243 0.882482
1206.37 0.0988587 0.0993252 -0.18632
1206.47 0.0998493 0.098738 0.437754
1206.57 0.0965466 0.0981627 -0.649429
1206.67 0.09869 0.0975989 0.426404
1206.77 0.101458 0.0970465 1.68279
1206.87 0.0949136 0.0965052 -0.634512
1206.97 0.0972431 0.0959747 0.503677
1207.07 0.10164 0.095455 2.39455
1207.17 0.0944648 0.0949456 -0.192143
1207.27 0.100077 0.0944465 2.18991
1207.37 0.0919449 0.0939575 -0.825084
1207.47 0.0896553 0.0934782 -1.55281
1207.57 0.0921094 0.0930086 -0.369323
1207.67 0.0917814 0.0925485 -0.31459
1207.77 0.0926636 0.0920976 0.232087
1207.87 0.0929712 0.0916557 0.528796
1207.97 0.0959112 0.0912228 1.8591
1208.07 0.092697 0.0907985 0.77569
1208.17 0.0898322 0.0903828 -0.228692
1208.27 0.0916201 0.0899754 0.680069
1208.37 0.0922481 0.0895762 1.08387
1208.47 0.0903343 0.089185 0.470294
1208.57 0.088733 0.0888017 -0.0287243
1208.67 0.088344 0.0884261 -0.0349233
1208.77 0.0885527 0.0880581 0.20581
1208.87 0.0846543 0.0876974 -1.28359
1208.97 0.0906285 0.087344 1.36395
1209.07 0.0857799 0.0869977 -0.515198
1209.17 0.0897067 0.0866584 1.2864
1209.27 0.0901953 0.0863259 1.57897
1209.37 0.0864617 0.086 0.196835
1209.47 0.0852283 0.0856808 -0.191467
1209.57 0.0830103 0.0853679 -1.01125
1209.67 0.0804919 0.0850613 -1.98122
1209.77 0.0856941 0.0847609 0.393993
1209.87 0.0875617 0.0844665 1.3159
1209.97 0.0868282 0.0841781 1.12966
1210.07 0.0843973 0.0838954 0.217102
1210.17 0.0832357 0.0836184 -0.165596
1210.27 0.0852662 0.083347 0.82308
1210.37 0.0834168 0.0830811 0.145595
1210.47 0.0863717 0.0828205 1.51049
1210.57 0.0840679 0.0825651 0.654753
1210.67 0.0850325 0.0823149 1.16969
1210.77 0.0779868 0.0820697 -1.8316
1210.87 0.0842745 0.0818294 1.04537
1210.97 0.0801832 0.0815939 -0.626649
1211.07 0.0775085 0.0813632 -1.71311
1211.17 0.0801541 0.0811371 -0.423079
1211.27 0.0804226 0.0809156 -0.215935
1211.37 0.0780453 0.0806985 -1.18172
1211.47 0.0784579 0.0804858 -0.914419
1211.57 0.0790525 0.0802774 -0.548238
1211.67 0.0781358 0.0800731 -0.870495
1211.77 0.0800893 0.079873 0.0978369
1211.87 0.0830219 0.0796768 1.45511
1211.97 0.0767364 0.0794847 -1.25183
1212.07 0.0786374 0.0792963 -0.286768
1212.17 0.0833693 0.0791118 1.84482
1212.27 0.078319 0.078931 -0.270553
1212.37 0.0782431 0.0787538 -0.230713
1212.47 0.0818243 0.0785802 1.42673
1212.57 0.0771119 0.07841 -0.585196
1212.67 0.0812816 0.0782433 1.33484
1212.77 0.0752857 0.07808 -1.25031
1212.87 0.0758409 0.0779199 -0.947408
1212.97 0.0791029 0.077763 0.597258
1213.07 0.0760882 0.0776093 -0.693092
1213.17 0.0761392 0.0774587 -0.600608
1213.27 0.0768937 0.0773111 -0.187652
1213.37 0.0729698 0.0771665 -1.94414
1213.47 0.0767859 0.0770247 -0.108158
1213.57 0.0733475 0.0768859 -1.63411
1213.67 0.0759877 0.0767498 -0.341702
1213.77 0.0749915 0.0766164 -0.745243
1213.87 0.0758159 0.0764858 -0.303551
1213.97 0.0736501 0.0763577 -1.24764
1214.07 0.076868 0.0762323 0.286211
1214.17 0.0759875 0.0761093 -0.0557671
1214.27 0.0761706 0.0759889 0.0822227
1214.37 0.0752097 0.0758708 -0.304021
1214.47 0.0730081 0.0757551 -1.28194
1214.57 0.0710718 0.0756418 -2.09911
1214.67 0.0742411 0.0755307 -0.591227
1214.77 0.0780789 0.0754219 1.19591
1214.87 0.0724991 0.0753152 -1.30303
1214.97 0.0737794 0.0752107 -0.659664
1215.07 0.0740984 0.0751083 -0.466414
1215.17 0.0769991 0.075008 0.909153
1215.27 0.0723557 0.0749096 -1.17644
1215.37 0.0745052 0.0748133 -0.140293
1215.47 0.0716173 0.0747189 -1.44265
1215.57 0.0704046 0.0746263 -1.96403
1215.67 0.0757806 0.0745357 0.56636
1215.77 0.0753285 0.0744468 0.406198
1215.87 0.074897 0.0743598 0.244717
1215.97 0.0740847 0.0742745 -0.0877781
1216.07 0.0723629 0.0741909 -0.844566
1216.17 0.0760327 0.074109 0.870199
