# Data from DA_121011_E3.h5 stim 4
# Ratiometric estimator mono-exponential fit
# Fitted model Ca = baseline+delta*exp(-(t-t0)/tau)
# nobs = 164
# number of degrees of freedom = 161
# baseline length = 7
# fit started from point 43
# estimated baseline 0.11465 and standard error 0.000567282
# estimated delta 0.0799823 and standard error 0.000957125
# estimated tau 9.52079 and standard error 0.268262
# residual sum of squares: 494.079
# RSS per degree of freedom: 3.06882
# Probability of observing a larger of equal RSS per DOF under the null hypothesis: 1.59194e-35
# WARNING: THE FIT IS NOT GOOD!

# rss per degree of freedom: 3.06882

# Time    Ca  Prediction  Residual
1816.88 0.133851 0.11465 7.1183
1817.08 0.128729 0.11465 5.3382
1817.28 0.131395 0.11465 6.2868
1817.48 0.125342 0.11465 4.07261
1817.68 0.126854 0.11465 4.69972
1817.88 0.133144 0.11465 6.86065
1818.08 0.12947 0.11465 5.65728

1825.48 0.189252 0.194632 -1.50859
1825.68 0.186019 0.192969 -1.95011
1825.88 0.186722 0.191341 -1.29615
1826.08 0.192239 0.189747 0.684071
1826.28 0.187922 0.188186 -0.0753096
1826.48 0.183899 0.186657 -0.796209
1826.68 0.182872 0.18516 -0.66331
1826.88 0.183813 0.183695 0.0337092
1827.08 0.185483 0.182259 0.928073
1827.28 0.175366 0.180854 -1.64139
1827.48 0.17948 0.179478 0.000585682
1827.68 0.176015 0.17813 -0.623453
1827.88 0.182014 0.176811 1.50472
1828.08 0.177861 0.175518 0.687667
1828.28 0.173567 0.174253 -0.206052
1828.48 0.166673 0.173014 -1.98408
1828.68 0.167189 0.171801 -1.41515
1828.88 0.171584 0.170613 0.291789
1829.08 0.168273 0.169449 -0.362573
1829.28 0.163112 0.16831 -1.63521
1829.48 0.164934 0.167195 -0.707096
1829.68 0.164137 0.166103 -0.618441
1829.88 0.167888 0.165033 0.875074
1830.08 0.164065 0.163986 0.0248192
1830.28 0.160575 0.16296 -0.760517
1830.48 0.169609 0.161956 2.36501
1830.68 0.164039 0.160972 0.972576
1830.88 0.15849 0.160009 -0.490719
1831.08 0.159088 0.159067 0.00692442
1831.28 0.159309 0.158143 0.372003
1831.48 0.157412 0.157239 0.0559141
1831.68 0.154362 0.156354 -0.650471
1831.88 0.15512 0.155487 -0.123265
1832.08 0.146968 0.154638 -2.62026
1832.28 0.159475 0.153807 1.83122
1832.48 0.15588 0.152993 0.955737
1832.68 0.152242 0.152196 0.0155318
1832.88 0.150842 0.151415 -0.190718
1833.08 0.149999 0.150651 -0.219239
1833.28 0.151957 0.149903 0.682952
1833.48 0.153526 0.14917 1.45064
1833.68 0.15777 0.148452 3.07247
1833.88 0.146954 0.147749 -0.269096
1834.08 0.153 0.147061 1.97809
1834.28 0.147136 0.146388 0.25636
1834.48 0.145316 0.145728 -0.142831
1834.68 0.147279 0.145082 0.75408
1834.88 0.150819 0.144449 2.15814
1835.08 0.144465 0.14383 0.223745
1835.28 0.142235 0.143223 -0.345901
1835.48 0.150737 0.142629 2.74545
1835.68 0.144654 0.142048 0.917538
1835.88 0.140993 0.141478 -0.170646
1836.08 0.145072 0.14092 1.46175
1836.28 0.144594 0.140374 1.46021
1836.48 0.142269 0.13984 0.853075
1836.68 0.141754 0.139316 0.863989
1836.88 0.140322 0.138803 0.541998
1837.08 0.144234 0.138301 2.09895
1837.28 0.140157 0.137809 0.841435
1837.48 0.140334 0.137328 1.08163
1837.68 0.13875 0.136857 0.671882
1837.88 0.136975 0.136395 0.20808
1838.08 0.138206 0.135943 0.810014
1838.28 0.136946 0.1355 0.519826
1838.48 0.13436 0.135067 -0.258553
1838.68 0.139583 0.134642 1.75673
1838.88 0.138221 0.134227 1.42463
1839.08 0.134625 0.13382 0.296142
1839.28 0.135286 0.133421 0.664024
1839.48 0.134455 0.133031 0.519789
1839.68 0.132127 0.132649 -0.194494
1839.88 0.13513 0.132275 1.04848
1840.08 0.13293 0.131908 0.379413
1840.28 0.134824 0.13155 1.18546
1840.48 0.133071 0.131198 0.696776
1840.68 0.135897 0.130854 1.83929
1840.88 0.133282 0.130518 1.02314
1841.08 0.133564 0.130188 1.22878
1841.28 0.130175 0.129865 0.115104
1841.48 0.130857 0.129548 0.491081
1841.68 0.131222 0.129239 0.745274
1841.88 0.128781 0.128935 -0.0577708
1842.08 0.132109 0.128638 1.2708
1842.28 0.126814 0.128348 -0.589178
1842.48 0.130453 0.128063 0.893344
1842.68 0.126882 0.127784 -0.347117
1842.88 0.123511 0.127511 -1.54127
1843.08 0.125271 0.127244 -0.771112
1843.28 0.12456 0.126982 -0.931759
1843.48 0.124913 0.126726 -0.694836
1843.68 0.127287 0.126475 0.304774
1843.88 0.120988 0.126229 -2.03893
1844.08 0.127671 0.125988 0.651108
1844.28 0.122733 0.125752 -1.18548
1844.48 0.127015 0.125522 0.577056
1844.68 0.126525 0.125296 0.468552
1844.88 0.128332 0.125074 1.23894
1845.08 0.12481 0.124858 -0.018547
1845.28 0.125257 0.124645 0.235305
1845.48 0.125555 0.124438 0.436178
1845.68 0.124277 0.124234 0.0164584
1845.88 0.124018 0.124035 -0.00668304
1846.08 0.120032 0.12384 -1.49304
1846.28 0.122685 0.123649 -0.378974
1846.48 0.129172 0.123462 2.14877
1846.68 0.119511 0.123278 -1.46643
1846.88 0.120327 0.123099 -1.094
1847.08 0.124831 0.122923 0.739404
1847.28 0.124102 0.122751 0.530787
1847.48 0.112908 0.122583 -4.00691
1847.68 0.121029 0.122418 -0.551463
1847.88 0.122051 0.122257 -0.0824473
1848.08 0.117312 0.122099 -1.93205
1848.28 0.119464 0.121944 -0.993047
1848.48 0.123914 0.121792 0.818346
1848.68 0.121885 0.121644 0.0949507
1848.88 0.118893 0.121498 -1.03153
1849.08 0.121658 0.121356 0.120257
1849.28 0.119403 0.121216 -0.728563
1849.48 0.118555 0.12108 -1.01076
1849.68 0.119159 0.120946 -0.712004
1849.88 0.116388 0.120815 -1.76815
1850.08 0.120016 0.120687 -0.266965
1850.28 0.11813 0.120562 -0.974229
1850.48 0.12069 0.120439 0.0996312
1850.68 0.117869 0.120318 -0.986734
1850.88 0.114362 0.120201 -2.37908
1851.08 0.117197 0.120085 -1.163
1851.28 0.118477 0.119972 -0.600775
1851.48 0.115749 0.119862 -1.68262
1851.68 0.120085 0.119753 0.130728
1851.88 0.11724 0.119647 -0.972355
1852.08 0.11573 0.119543 -1.54694
1852.28 0.116334 0.119442 -1.25059
1852.48 0.116595 0.119342 -1.11241
1852.68 0.117209 0.119244 -0.823677
1852.88 0.120222 0.119149 0.425202
1853.08 0.115436 0.119055 -1.49563
1853.28 0.113622 0.118964 -2.19299
1853.48 0.114443 0.118874 -1.7869
1853.68 0.113942 0.118786 -1.97982
1853.88 0.11884 0.1187 0.0561336
1854.08 0.119516 0.118616 0.358061
1854.28 0.112373 0.118534 -2.55633
1854.48 0.113489 0.118453 -2.04954
1854.68 0.115489 0.118374 -1.18552
1854.88 0.112662 0.118296 -2.32397
1855.08 0.114937 0.118221 -1.33559
1855.28 0.116392 0.118146 -0.708948
1855.48 0.114694 0.118074 -1.36655
1855.68 0.112374 0.118003 -2.33427
1855.88 0.109892 0.117933 -3.39326
1856.08 0.111182 0.117865 -2.76566
1856.28 0.11145 0.117798 -2.66192
1856.48 0.112743 0.117732 -2.06578
1856.68 0.111534 0.117668 -2.54122
