# Data from DA_121011_E3.h5 stim 2
# Ratiometric estimator mono-exponential fit
# Fitted model Ca = baseline+delta*exp(-(t-t0)/tau)
# nobs = 170
# number of degrees of freedom = 167
# baseline length = 7
# fit started from point 37
# estimated baseline 0.0372288 and standard error 0.000316304
# estimated delta 0.0457024 and standard error 0.00103654
# estimated tau 3.03295 and standard error 0.122822
# residual sum of squares: 178.923
# RSS per degree of freedom: 1.0714
# Probability of observing a larger of equal RSS per DOF under the null hypothesis: 0.250224

# rss per degree of freedom: 1.0714

# Time    Ca  Prediction  Residual
755.656 0.035834 0.0372288 -0.614854
755.756 0.0348518 0.0372288 -1.04748
755.856 0.0356777 0.0372288 -0.683002
755.956 0.0340092 0.0372288 -1.40944
756.056 0.036037 0.0372288 -0.521496
756.156 0.0329222 0.0372288 -1.92094
756.256 0.0351371 0.0372288 -0.92702

759.356 0.0800302 0.0829312 -0.929474
759.456 0.0854 0.0814489 1.23673
759.556 0.0785201 0.0800147 -0.480928
759.656 0.0840052 0.078627 1.68203
759.756 0.0778683 0.0772843 0.191615
759.856 0.0733025 0.0759851 -0.885711
759.956 0.0801379 0.0747281 1.75012
760.056 0.075524 0.0735119 0.666471
760.156 0.072981 0.0723351 0.21268
760.256 0.0772283 0.0711965 1.95894
760.356 0.0670797 0.0700948 -1.06731
760.456 0.068159 0.0690288 -0.304539
760.556 0.0666171 0.0679974 -0.489406
760.656 0.0665067 0.0669995 -0.172526
760.756 0.066589 0.0660339 0.200202
760.856 0.0635087 0.0650997 -0.570496
760.956 0.06158 0.0641957 -0.948872
761.056 0.0618304 0.0633211 -0.536533
761.156 0.063657 0.0624748 0.426761
761.256 0.0627747 0.061656 0.403517
761.356 0.0616388 0.0608637 0.281779
761.456 0.0593912 0.0600972 -0.264931
761.556 0.0583582 0.0593555 -0.367945
761.656 0.0522837 0.0586378 -2.40627
761.756 0.05878 0.0579434 0.314941
761.856 0.0524881 0.0572716 -1.84069
761.956 0.0568937 0.0566215 0.101601
762.056 0.053534 0.0559926 -0.957296
762.156 0.0572564 0.055384 0.695426
762.256 0.0521211 0.0547951 -1.03715
762.356 0.0506724 0.0542254 -1.39885
762.456 0.0538383 0.0536741 0.0628713
762.556 0.0561975 0.0531408 1.16984
762.656 0.0565476 0.0526247 1.47165
762.756 0.0464864 0.0521253 -2.26379
762.856 0.0516024 0.0516422 -0.0153392
762.956 0.0503895 0.0511747 -0.307077
763.056 0.0529346 0.0507224 0.849633
763.156 0.0498944 0.0502847 -0.156726
763.256 0.0477232 0.0498613 -0.857187
763.356 0.053886 0.0494516 1.70652
763.456 0.0512703 0.0490551 0.87344
763.556 0.0450907 0.0486716 -1.4595
763.656 0.0475562 0.0483004 -0.293744
763.756 0.0483091 0.0479413 0.146021
763.856 0.0462786 0.0475939 -0.529346
763.956 0.0510995 0.0472577 1.51577
764.056 0.0483162 0.0469324 0.556422
764.156 0.0501785 0.0466177 1.3978
764.256 0.0454223 0.0463132 -0.362324
764.356 0.0463472 0.0460186 0.132704
764.456 0.0425262 0.0457335 -1.33013
764.556 0.0452975 0.0454576 -0.0648419
764.656 0.0455905 0.0451908 0.164382
764.756 0.0422116 0.0449325 -1.1324
764.856 0.0482611 0.0446827 1.42902
764.956 0.043547 0.0444409 -0.365273
765.056 0.042253 0.044207 -0.82496
765.156 0.0458929 0.0439807 0.776957
765.256 0.0461199 0.0437617 0.971336
765.356 0.0407487 0.0435498 -1.16605
765.456 0.0458552 0.0433448 1.02618
765.556 0.0459247 0.0431464 1.13944
765.656 0.0466677 0.0429545 1.50743
765.756 0.038947 0.0427688 -1.65733
765.856 0.0414821 0.0425891 -0.468812
765.956 0.0446042 0.0424152 0.910283
766.056 0.0415303 0.042247 -0.300625
766.156 0.0417798 0.0420843 -0.128091
766.256 0.0434201 0.0419268 0.621338
766.356 0.042455 0.0417744 0.282795
766.456 0.0451201 0.041627 1.44099
766.556 0.0429197 0.0414843 0.592208
766.656 0.0467342 0.0413463 2.19035
766.756 0.0466065 0.0412128 2.19151
766.856 0.0406975 0.0410835 -0.159184
766.956 0.0377858 0.0409585 -1.38406
767.056 0.0401584 0.0408375 -0.288047
767.156 0.040243 0.0407205 -0.203993
767.256 0.0401695 0.0406073 -0.186203
767.356 0.0373528 0.0404977 -1.35601
767.456 0.0338729 0.0403917 -2.88908
767.556 0.0420005 0.0402891 0.725851
767.656 0.0379216 0.0401898 -0.982704
767.756 0.0404062 0.0400938 0.130923
767.856 0.0425826 0.0400009 1.07598
767.956 0.0442117 0.0399109 1.78779
768.056 0.0379988 0.039824 -0.797127
768.156 0.0386391 0.0397398 -0.470171
768.256 0.0338543 0.0396583 -2.54131
768.356 0.0403993 0.0395795 0.350006
768.456 0.0392413 0.0395033 -0.11217
768.556 0.0410841 0.0394295 0.709916
768.656 0.0378068 0.0393581 -0.664385
768.756 0.0420762 0.0392891 1.1988
768.856 0.0433927 0.0392223 1.71589
768.956 0.0378518 0.0391576 -0.561433
769.056 0.039824 0.039095 0.308258
769.156 0.0407441 0.0390345 0.716716
769.256 0.0417013 0.038976 1.15974
769.356 0.0367463 0.0389193 -0.958858
769.456 0.0419862 0.0388645 1.3225
769.556 0.0402791 0.0388114 0.623834
769.656 0.0394512 0.0387601 0.295811
769.756 0.0354233 0.0387104 -1.46058
769.856 0.041066 0.0386624 1.02737
769.956 0.040834 0.0386159 0.952254
770.056 0.0397977 0.0385709 0.528007
770.156 0.036249 0.0385273 -1.01025
770.256 0.0375596 0.0384852 -0.399775
770.356 0.0406747 0.0384445 0.957917
770.456 0.0374035 0.038405 -0.433088
770.556 0.0378887 0.0383669 -0.202955
770.656 0.038521 0.03833 0.0822252
770.756 0.0412677 0.0382943 1.27104
770.856 0.0400685 0.0382597 0.778857
770.956 0.0382657 0.0382263 0.0170976
771.056 0.0362821 0.0381939 -0.844851
771.156 0.0354341 0.0381626 -1.22677
771.256 0.0371889 0.0381323 -0.411007
771.356 0.0420709 0.038103 1.68284
771.456 0.0356964 0.0380747 -1.02756
771.556 0.0388794 0.0380472 0.355549
771.656 0.0381128 0.0380207 0.0394601
771.756 0.0368089 0.037995 -0.52077
771.856 0.0385736 0.0379701 0.262474
771.956 0.0394693 0.0379461 0.654915
772.056 0.041946 0.0379228 1.69273
772.156 0.0384112 0.0379003 0.220214
772.256 0.0414305 0.0378785 1.50577
772.356 0.0405558 0.0378575 1.13972
772.456 0.0364403 0.0378371 -0.615609
772.556 0.0346809 0.0378173 -1.38488
772.656 0.0395317 0.0377983 0.746298
772.756 0.0372074 0.0377798 -0.250373
772.856 0.038755 0.0377619 0.429732
772.956 0.0367251 0.0377446 -0.448776
773.056 0.0353407 0.0377279 -1.04835
773.156 0.0433212 0.0377117 2.36213
773.256 0.0405324 0.037696 1.21333
773.356 0.0369351 0.0376809 -0.325562
773.456 0.0398003 0.0376662 0.908892
773.556 0.0398246 0.037652 0.934448
773.656 0.0365165 0.0376383 -0.49462
773.756 0.0368387 0.037625 -0.348748
773.856 0.0403348 0.0376122 1.17526
773.956 0.038763 0.0375997 0.492676
774.056 0.0357247 0.0375877 -0.822161
774.156 0.0334891 0.0375761 -1.84574
774.256 0.0369049 0.0375648 -0.288487
774.356 0.0375952 0.0375539 0.0180842
774.456 0.0345138 0.0375434 -1.35528
774.556 0.038133 0.0375332 0.261095
774.656 0.0350128 0.0375233 -1.11133
774.756 0.0395422 0.0375137 0.874891
774.856 0.0369051 0.0375045 -0.259946
774.956 0.0358769 0.0374955 -0.697546
775.056 0.0361078 0.0374869 -0.611012
775.156 0.0355345 0.0374785 -0.864891
775.256 0.0381396 0.0374704 0.289697
775.356 0.0400136 0.0374626 1.10374
775.456 0.0409376 0.037455 1.49494
775.556 0.0356262 0.0374477 -0.80055
