# Data from DA_121011_E3.h5 stim 1
# Ratiometric estimator mono-exponential fit
# Fitted model Ca = baseline+delta*exp(-(t-t0)/tau)
# nobs = 183
# number of degrees of freedom = 180
# baseline length = 7
# fit started from point 24
# estimated baseline 0.0254829 and standard error 0.000329797
# estimated delta 0.0549105 and standard error 0.0025399
# estimated tau 1.47966 and standard error 0.0933651
# residual sum of squares: 206.939
# RSS per degree of freedom: 1.14966
# Probability of observing a larger of equal RSS per DOF under the null hypothesis: 0.0823716

# rss per degree of freedom: 1.14966

# Time    Ca  Prediction  Residual
435.015 0.0300466 0.0254829 1.15188
435.115 0.0296246 0.0254829 1.05175
435.215 0.0247843 0.0254829 -0.180937
435.315 0.0202721 0.0254829 -1.37171
435.415 0.0198312 0.0254829 -1.50524
435.515 0.0239458 0.0254829 -0.406329
435.615 0.0212867 0.0254829 -1.11672

437.415 0.0836471 0.0803933 0.560374
437.515 0.0679988 0.0768049 -1.66593
437.615 0.0823647 0.073451 1.542
437.715 0.0685623 0.0703163 -0.333011
437.815 0.0651274 0.0673865 -0.43113
437.915 0.071725 0.0646481 1.3208
438.015 0.0701781 0.0620886 1.5463
438.115 0.0606069 0.0596964 0.182616
438.215 0.0628636 0.0574606 1.08787
438.315 0.0506473 0.0553708 -1.01548
438.415 0.0441058 0.0534176 -2.08677
438.515 0.0568404 0.0515921 1.09401
438.615 0.0497872 0.0498859 -0.0215318
438.715 0.044912 0.0482911 -0.758138
438.815 0.0411527 0.0468006 -1.34786
438.915 0.0450592 0.0454075 -0.0781393
439.015 0.0477567 0.0441054 0.807261
439.115 0.0434393 0.0428884 0.125532
439.215 0.0464966 0.041751 1.0602
439.315 0.0352632 0.0406879 -1.32148
439.415 0.0404355 0.0396942 0.174549
439.515 0.0349624 0.0387655 -0.928757
439.615 0.0369293 0.0378975 -0.23312
439.715 0.0354036 0.0370862 -0.412726
439.815 0.0311889 0.0363279 -1.30641
439.915 0.0323116 0.0356192 -0.84056
440.015 0.0383444 0.0349568 0.802965
440.115 0.031532 0.0343377 -0.717237
440.215 0.0324893 0.033759 -0.314706
440.315 0.0375339 0.0332182 1.05822
440.415 0.0388292 0.0327127 1.45348
440.515 0.0399316 0.0322402 1.87006
440.615 0.0331683 0.0317986 0.339724
440.715 0.0361477 0.0313859 1.18947
440.815 0.0268098 0.0310001 -1.11164
440.915 0.0263885 0.0306395 -1.09908
441.015 0.0267099 0.0303026 -0.919018
441.115 0.0309818 0.0299876 0.258128
441.215 0.0251298 0.0296932 -1.21382
441.315 0.0315264 0.0294181 0.537668
441.415 0.0250854 0.0291609 -1.08714
441.515 0.0270548 0.0289205 -0.48843
441.615 0.0281143 0.0286959 -0.152168
441.715 0.0285899 0.0284859 0.0267272
441.815 0.0300727 0.0282897 0.467502
441.915 0.0364772 0.0281062 2.09087
442.015 0.0250841 0.0279348 -0.74767
442.115 0.0238255 0.0277746 -1.06448
442.215 0.0296049 0.0276248 0.509313
442.315 0.0289271 0.0274848 0.370344
442.415 0.0306615 0.027354 0.849177
442.515 0.031875 0.0272317 1.20194
442.615 0.0326079 0.0271174 1.39864
442.715 0.0339333 0.0270106 1.77237
442.815 0.0232845 0.0269108 -0.980456
442.915 0.0309529 0.0268175 1.06933
443.015 0.0334773 0.0267302 1.69847
443.115 0.0242915 0.0266487 -0.64044
443.215 0.0346103 0.0265725 2.03614
443.315 0.0286387 0.0265013 0.554198
443.415 0.0250796 0.0264348 -0.366534
443.515 0.0254337 0.0263726 -0.249701
443.615 0.0312417 0.0263144 1.27997
443.715 0.0257843 0.0262601 -0.125882
443.815 0.0243098 0.0262093 -0.514056
443.915 0.0237504 0.0261618 -0.653971
444.015 0.0259915 0.0261174 -0.0331478
444.115 0.0253457 0.026076 -0.195417
444.215 0.0265974 0.0260372 0.145262
444.315 0.0274615 0.026001 0.387114
444.415 0.0286401 0.0259671 0.719589
444.515 0.0281846 0.0259355 0.593105
444.615 0.025404 0.0259059 -0.137402
444.715 0.0281262 0.0258783 0.588926
444.815 0.027344 0.0258524 0.397363
444.915 0.0260789 0.0258283 0.0678753
445.015 0.0343851 0.0258057 2.18862
445.115 0.0224363 0.0257846 -0.936702
445.215 0.0306398 0.0257649 1.29294
445.315 0.0272661 0.0257465 0.415822
445.415 0.025788 0.0257292 0.0158667
445.515 0.0306474 0.0257131 1.29207
445.615 0.0248571 0.0256981 -0.231743
445.715 0.0344909 0.025684 2.21985
445.815 0.0244951 0.0256709 -0.324869
445.915 0.0303755 0.0256586 1.22852
446.015 0.0229973 0.0256471 -0.735527
446.115 0.0254614 0.0256364 -0.0472758
446.215 0.0217909 0.0256263 -1.05088
446.315 0.0229972 0.025617 -0.726202
446.415 0.0218665 0.0256082 -1.04471
446.515 0.0188052 0.0256 -1.94239
446.615 0.0225936 0.0255923 -0.831063
446.715 0.0238357 0.0255852 -0.484234
446.815 0.0195877 0.0255785 -1.69472
446.915 0.019068 0.0255723 -1.82532
447.015 0.0276173 0.0255664 0.548584
447.115 0.0219425 0.025561 -0.997277
447.215 0.0236164 0.0255559 -0.5298
447.315 0.0343228 0.0255511 2.26625
447.415 0.0287227 0.0255466 0.854559
447.515 0.0395066 0.0255425 3.49339
447.615 0.0351915 0.0255386 2.47437
447.715 0.0267014 0.0255349 0.316226
447.815 0.0197211 0.0255315 -1.66101
447.915 0.0276482 0.0255283 0.583639
448.015 0.029274 0.0255254 1.00168
448.115 0.0317455 0.0255226 1.65135
448.215 0.0245179 0.02552 -0.276447
448.315 0.0207539 0.0255176 -1.36758
448.415 0.0301456 0.0255153 1.21939
448.515 0.0250718 0.0255132 -0.12031
448.615 0.0270514 0.0255112 0.415848
448.715 0.027314 0.0255093 0.489709
448.815 0.024966 0.0255076 -0.152324
448.915 0.0268009 0.025506 0.351598
449.015 0.026063 0.0255045 0.153853
449.115 0.021224 0.0255031 -1.20671
449.215 0.0201129 0.0255018 -1.5569
449.315 0.0269943 0.0255005 0.409528
449.415 0.0301852 0.0254994 1.25987
449.515 0.026541 0.0254983 0.287106
449.615 0.0260274 0.0254973 0.144583
449.715 0.0258489 0.0254963 0.0967562
449.815 0.0223579 0.0254955 -0.889391
449.915 0.0248585 0.0254946 -0.173305
450.015 0.0219498 0.0254939 -1.01087
450.115 0.0276149 0.0254931 0.577996
450.215 0.0282772 0.0254925 0.760712
450.315 0.0323358 0.0254918 1.83168
450.415 0.0275433 0.0254913 0.564012
450.515 0.0236136 0.0254907 -0.540027
450.615 0.0265945 0.0254902 0.309652
450.715 0.0254795 0.0254897 -0.002828
450.815 0.0256718 0.0254893 0.0501437
450.915 0.0260547 0.0254888 0.158096
451.015 0.0286906 0.0254885 0.860185
451.115 0.0253451 0.0254881 -0.0406969
451.215 0.0242139 0.0254877 -0.362223
451.315 0.0305676 0.0254874 1.39119
451.415 0.0187034 0.0254871 -1.9976
451.515 0.0208972 0.0254869 -1.3323
451.615 0.0183548 0.0254866 -2.12626
451.715 0.0239675 0.0254863 -0.426903
451.815 0.02786 0.0254861 0.669326
451.915 0.0211642 0.0254859 -1.2359
452.015 0.0309702 0.0254857 1.47831
452.115 0.0239498 0.0254855 -0.434159
452.215 0.0246051 0.0254853 -0.25041
452.315 0.0233966 0.0254852 -0.600615
452.415 0.021603 0.025485 -1.10618
452.515 0.0265853 0.0254849 0.307304
452.615 0.0326817 0.0254848 1.96477
452.715 0.017418 0.0254846 -2.42548
452.815 0.0201613 0.0254845 -1.5254
452.915 0.0308296 0.0254844 1.44355
453.015 0.0250005 0.0254843 -0.138171
453.115 0.0181615 0.0254842 -2.193
453.215 0.0245716 0.0254841 -0.260199
453.315 0.0232022 0.025484 -0.642969
453.415 0.0289276 0.025484 0.949386
453.515 0.0240146 0.0254839 -0.416882
453.615 0.0274566 0.0254838 0.548746
453.715 0.0290335 0.0254838 0.981153
453.815 0.0284097 0.0254837 0.814475
453.915 0.0234361 0.0254836 -0.596209
454.015 0.0223701 0.0254836 -0.880673
454.115 0.0241575 0.0254835 -0.378754
454.215 0.0262588 0.0254835 0.217668
454.315 0.0193003 0.0254835 -1.78877
454.415 0.0272434 0.0254834 0.492182
454.515 0.0235792 0.0254834 -0.54775
454.615 0.0228877 0.0254834 -0.75056
454.715 0.0226109 0.0254833 -0.822543
454.815 0.0273593 0.0254833 0.529485
454.915 0.0261754 0.0254833 0.191419
