# Data from DA_121011_E2.h5 stim 4
# Ratiometric estimator mono-exponential fit
# Fitted model Ca = baseline+delta*exp(-(t-t0)/tau)
# nobs = 172
# number of degrees of freedom = 169
# baseline length = 7
# fit started from point 35
# estimated baseline 0.0747292 and standard error 0.000461961
# estimated delta 0.0277771 and standard error 0.000532699
# estimated tau 13.2325 and standard error 0.669589
# residual sum of squares: 290.504
# RSS per degree of freedom: 1.71896
# Probability of observing a larger of equal RSS per DOF under the null hypothesis: 1.82029e-08
# WARNING: THE FIT IS NOT GOOD!

# rss per degree of freedom: 1.71896

# Time    Ca  Prediction  Residual
1841.88 0.077909 0.0747292 1.91032
1842.08 0.0783042 0.0747292 2.12791
1842.28 0.0784795 0.0747292 2.23285
1842.48 0.0780055 0.0747292 1.94545
1842.68 0.0767248 0.0747292 1.20481
1842.88 0.0784277 0.0747292 2.22007
1843.08 0.0791131 0.0747292 2.62092

1848.88 0.102988 0.102506 0.24857
1849.08 0.10466 0.10209 1.30031
1849.28 0.100526 0.101679 -0.599762
1849.48 0.103278 0.101275 1.02421
1849.68 0.101245 0.100877 0.18918
1849.88 0.0999953 0.100484 -0.253847
1850.08 0.102283 0.100098 1.13033
1850.28 0.0957845 0.0997175 -2.08006
1850.48 0.102151 0.0993427 1.45059
1850.68 0.0956547 0.0989735 -1.77092
1850.88 0.100264 0.0986098 0.855547
1851.08 0.0993452 0.0982516 0.568707
1851.28 0.0973022 0.0978987 -0.320111
1851.48 0.0939234 0.0975511 -1.967
1851.68 0.0955697 0.0972088 -0.888899
1851.88 0.0927046 0.0968716 -2.26812
1852.08 0.0966236 0.0965394 0.0455782
1852.28 0.0947177 0.0962123 -0.809966
1852.48 0.0965814 0.09589 0.372778
1852.68 0.0991808 0.0955726 1.88173
1852.88 0.0948651 0.0952599 -0.213636
1853.08 0.0971052 0.0949519 1.14444
1853.28 0.0966899 0.0946486 1.09561
1853.48 0.0961316 0.0943498 0.957924
1853.68 0.0916297 0.0940555 -1.32141
1853.88 0.0924842 0.0937655 -0.689412
1854.08 0.0936043 0.09348 0.0680841
1854.28 0.0903405 0.0931987 -1.58204
1854.48 0.0910671 0.0929217 -1.02208
1854.68 0.0939672 0.0926488 0.714984
1854.88 0.0902968 0.09238 -1.13984
1855.08 0.0881661 0.0921152 -2.21727
1855.28 0.0890644 0.0918544 -1.55992
1855.48 0.0885627 0.0915975 -1.71196
1855.68 0.0896076 0.0913444 -0.972686
1855.88 0.088715 0.0910952 -1.32171
1856.08 0.0855182 0.0908497 -3.02266
1856.28 0.0849198 0.0906079 -3.23869
1856.48 0.0921616 0.0903697 0.975952
1856.68 0.0893138 0.0901351 -0.453718
1856.88 0.0888689 0.089904 -0.5856
1857.08 0.0875422 0.0896763 -1.20484
1857.28 0.0900782 0.0894521 0.348164
1857.48 0.0893113 0.0892313 0.0447608
1857.68 0.0917069 0.0890137 1.48014
1857.88 0.0891215 0.0887995 0.178731
1858.08 0.0910679 0.0885884 1.35829
1858.28 0.0910851 0.0883805 1.49417
1858.48 0.0909128 0.0881757 1.50501
1858.68 0.0901308 0.087974 1.20215
1858.88 0.0925858 0.0877753 2.60653
1859.08 0.0916065 0.0875796 2.21278
1859.28 0.085864 0.0873869 -0.863828
1859.48 0.0880243 0.087197 0.464039
1859.68 0.0859201 0.08701 -0.615179
1859.88 0.0861535 0.0868257 -0.38263
1860.08 0.086555 0.0866443 -0.0509924
1860.28 0.0904428 0.0864655 2.1968
1860.48 0.0886425 0.0862895 1.32105
1860.68 0.0880897 0.0861161 1.12667
1860.88 0.090672 0.0859453 2.60133
1861.08 0.0868096 0.085777 0.592246
1861.28 0.0858526 0.0856113 0.136301
1861.48 0.0880962 0.0854481 1.48685
1861.68 0.0867906 0.0852873 0.853065
1861.88 0.0871031 0.0851289 1.11918
1862.08 0.0873175 0.0849729 1.34361
1862.28 0.0843122 0.0848192 -0.293309
1862.48 0.0824024 0.0846679 -1.32514
1862.68 0.0852763 0.0845188 0.428092
1862.88 0.0863989 0.0843719 1.14425
1863.08 0.0855072 0.0842273 0.725557
1863.28 0.087331 0.0840848 1.8339
1863.48 0.0847594 0.0839445 0.470331
1863.68 0.0833642 0.0838062 -0.254235
1863.88 0.0848861 0.0836701 0.693664
1864.08 0.0899579 0.0835359 3.5923
1864.28 0.0842152 0.0834038 0.458661
1864.48 0.0846936 0.0832737 0.818029
1864.68 0.0838816 0.0831455 0.423355
1864.88 0.0852788 0.0830193 1.30551
1865.08 0.0847878 0.0828949 1.08614
1865.28 0.085071 0.0827724 1.31092
1865.48 0.0826204 0.0826518 -0.018363
1865.68 0.083272 0.0825329 0.427864
1865.88 0.0838032 0.0824159 0.801033
1866.08 0.0837244 0.0823006 0.811801
1866.28 0.083688 0.082187 0.856283
1866.48 0.084589 0.0820751 1.45075
1866.68 0.082326 0.0819649 0.212091
1866.88 0.0817247 0.0818564 -0.0770118
1867.08 0.0801221 0.0817495 -0.950272
1867.28 0.0827591 0.0816442 0.647594
1867.48 0.0847323 0.0815404 1.82696
1867.68 0.0834737 0.0814383 1.19195
1867.88 0.082142 0.0813376 0.463518
1868.08 0.0771633 0.0812385 -2.48191
1868.28 0.0834657 0.0811408 1.34488
1868.48 0.0842719 0.0810447 1.84011
1868.68 0.0820409 0.0809499 0.62609
1868.88 0.0802723 0.0808566 -0.343035
1869.08 0.080459 0.0807647 -0.181031
1869.28 0.0844823 0.0806742 2.21148
1869.48 0.0810644 0.080585 0.28502
1869.68 0.0789397 0.0804971 -0.930733
1869.88 0.0801379 0.0804106 -0.161838
1870.08 0.0809815 0.0803254 0.387539
1870.28 0.0831211 0.0802414 1.67531
1870.48 0.0815805 0.0801587 0.840859
1870.68 0.0827718 0.0800773 1.57306
1870.88 0.079335 0.0799971 -0.395995
1871.08 0.079385 0.0799181 -0.313346
1871.28 0.0820924 0.0798402 1.32248
1871.48 0.0803964 0.0797635 0.373019
1871.68 0.0794766 0.079688 -0.122972
1871.88 0.0773211 0.0796136 -1.36823
1872.08 0.0804059 0.0795404 0.512518
1872.28 0.0797751 0.0794682 0.184887
1872.48 0.07802 0.0793971 -0.827864
1872.68 0.0768768 0.0793271 -1.4777
1872.88 0.0783203 0.0792581 -0.574791
1873.08 0.078731 0.0791902 -0.274568
1873.28 0.0772599 0.0791233 -1.12795
1873.48 0.0782646 0.0790573 -0.467431
1873.68 0.0761191 0.0789924 -1.73859
1873.88 0.0787267 0.0789285 -0.119341
1874.08 0.0803085 0.0788655 0.864441
1874.28 0.0748155 0.0788034 -2.47283
1874.48 0.0759177 0.0787423 -1.71122
1874.68 0.0762845 0.0786821 -1.44547
1874.88 0.0780097 0.0786228 -0.362401
1875.08 0.0763151 0.0785644 -1.36811
1875.28 0.0746071 0.0785069 -2.39545
1875.48 0.0764735 0.0784502 -1.19734
1875.68 0.0748718 0.0783944 -2.1452
1875.88 0.0771833 0.0783394 -0.691116
1876.08 0.0796031 0.0782853 0.784132
1876.28 0.0760474 0.0782319 -1.32716
1876.48 0.0759768 0.0781794 -1.33606
1876.68 0.0757748 0.0781276 -1.4117
1876.88 0.0735956 0.0780766 -2.76395
1877.08 0.0766919 0.0780264 -0.806275
1877.28 0.0769043 0.077977 -0.645917
1877.48 0.0760387 0.0779282 -1.14428
1877.68 0.0752799 0.0778803 -1.59319
1877.88 0.0764933 0.077833 -0.815134
1878.08 0.0773535 0.0777864 -0.263331
1878.28 0.0763725 0.0777406 -0.833262
1878.48 0.0773337 0.0776954 -0.215832
1878.68 0.0746726 0.0776509 -1.81441
1878.88 0.0755149 0.0776071 -1.2727
1879.08 0.0765137 0.0775639 -0.634708
1879.28 0.0738612 0.0775214 -2.26173
1879.48 0.0759431 0.0774795 -0.939985
1879.68 0.0784527 0.0774382 0.614293
1879.88 0.0756361 0.0773976 -1.06393
1880.08 0.0748575 0.0773576 -1.52472
1880.28 0.0793041 0.0773181 1.17853
1880.48 0.0774653 0.0772793 0.109937
1880.68 0.0767314 0.077241 -0.308044
1880.88 0.077376 0.0772034 0.104604
1881.08 0.0749461 0.0771663 -1.35477
1881.28 0.076586 0.0771297 -0.328789
1881.48 0.0748834 0.0770937 -1.35351
1881.68 0.077152 0.0770582 0.0560793
