# Data from DA_121011_E2.h5 stim 3
# Ratiometric estimator mono-exponential fit
# Fitted model Ca = baseline+delta*exp(-(t-t0)/tau)
# nobs = 159
# number of degrees of freedom = 156
# baseline length = 7
# fit started from point 48
# estimated baseline 0.0722043 and standard error 0.000437676
# estimated delta 0.0409214 and standard error 0.000631848
# estimated tau 5.02954 and standard error 0.192819
# residual sum of squares: 173.463
# RSS per degree of freedom: 1.11194
# Probability of observing a larger of equal RSS per DOF under the null hypothesis: 0.160741

# rss per degree of freedom: 1.11194

# Time    Ca  Prediction  Residual
1221.26 0.0754655 0.0722043 1.78359
1221.36 0.0754773 0.0722043 1.78206
1221.46 0.0711274 0.0722043 -0.609218
1221.56 0.0733664 0.0722043 0.639113
1221.66 0.072342 0.0722043 0.0775002
1221.76 0.0727023 0.0722043 0.277203
1221.86 0.0696513 0.0722043 -1.45921

1226.06 0.111368 0.113126 -0.777907
1226.16 0.113478 0.11232 0.505389
1226.26 0.114183 0.11153 1.14304
1226.36 0.113771 0.110756 1.32545
1226.46 0.107058 0.109997 -1.32473
1226.56 0.103853 0.109253 -2.48419
1226.66 0.108442 0.108524 -0.0360925
1226.76 0.10513 0.107809 -1.21906
1226.86 0.103129 0.107108 -1.82486
1226.96 0.108112 0.106421 0.761843
1227.06 0.103295 0.105747 -1.13582
1227.16 0.102815 0.105087 -1.03757
1227.26 0.105148 0.10444 0.317299
1227.36 0.106122 0.103805 1.05171
1227.46 0.096725 0.103183 -3.06184
1227.56 0.105522 0.102573 1.33783
1227.66 0.103486 0.101975 0.701748
1227.76 0.106003 0.101389 2.06401
1227.86 0.102392 0.100815 0.725801
1227.96 0.0986549 0.100251 -0.75199
1228.06 0.0984396 0.0996992 -0.596015
1228.16 0.105608 0.0991579 2.95224
1228.26 0.102066 0.0986273 1.59331
1228.36 0.0985234 0.0981072 0.195754
1228.46 0.102754 0.0975972 2.35115
1228.56 0.0999604 0.0970973 1.3329
1228.66 0.0969578 0.0966073 0.164907
1228.76 0.0991145 0.0961269 1.42836
1228.86 0.0964704 0.0956559 0.390175
1228.96 0.0937443 0.0951943 -0.704291
1229.06 0.0978339 0.0947417 1.47881
1229.16 0.0969246 0.094298 1.24841
1229.26 0.0963608 0.0938631 1.18923
1229.36 0.0915264 0.0934367 -0.931737
1229.46 0.0910251 0.0930187 -0.983388
1229.56 0.0926645 0.0926089 0.0272216
1229.66 0.0929166 0.0922073 0.348204
1229.76 0.0917282 0.0918135 -0.0418061
1229.86 0.0897751 0.0914274 -0.82201
1229.96 0.0901607 0.091049 -0.439847
1230.06 0.0902196 0.090678 -0.226993
1230.16 0.0883837 0.0903144 -0.963594
1230.26 0.0898298 0.0899578 -0.0640033
1230.36 0.0888621 0.0896083 -0.376481
1230.46 0.0875013 0.0892657 -0.889675
1230.56 0.090253 0.0889298 0.660115
1230.66 0.0877792 0.0886006 -0.423028
1230.76 0.08642 0.0882778 -0.938847
1230.86 0.0895293 0.0879614 0.794213
1230.96 0.0853293 0.0876512 -1.17809
1231.06 0.0858019 0.0873471 -0.793298
1231.16 0.0854389 0.087049 -0.830559
1231.26 0.0841475 0.0867567 -1.35056
1231.36 0.0861627 0.0864703 -0.159269
1231.46 0.0847057 0.0861894 -0.764997
1231.56 0.0875284 0.0859141 0.828835
1231.66 0.0826407 0.0856442 -1.55087
1231.76 0.0830537 0.0853796 -1.2101
1231.86 0.0867908 0.0851203 0.843657
1231.96 0.0847948 0.084866 -0.0365134
1232.06 0.086234 0.0846167 0.829975
1232.16 0.0848711 0.0843724 0.253921
1232.26 0.0840788 0.0841328 -0.0277824
1232.36 0.085142 0.083898 0.641919
1232.46 0.0833439 0.0836678 -0.16538
1232.56 0.0852944 0.0834421 0.951888
1232.66 0.0867295 0.0832209 1.78324
1232.76 0.0811378 0.083004 -0.992944
1232.86 0.0819719 0.0827914 -0.427366
1232.96 0.0812781 0.082583 -0.684232
1233.06 0.0800308 0.0823787 -1.25039
1233.16 0.084857 0.0821784 1.38508
1233.26 0.0810808 0.081982 -0.476048
1233.36 0.0815381 0.0817895 -0.130241
1233.46 0.0832223 0.0816008 0.837315
1233.56 0.0826034 0.0814159 0.624403
1233.66 0.0818053 0.0812345 0.302809
1233.76 0.083126 0.0810567 1.07056
1233.86 0.0815615 0.0808825 0.351641
1233.96 0.07957 0.0807116 -0.608637
1234.06 0.0822668 0.0805442 0.900778
1234.16 0.0797427 0.08038 -0.342436
1234.26 0.0797656 0.080219 -0.237669
1234.36 0.081039 0.0800612 0.52534
1234.46 0.0808849 0.0799066 0.513577
1234.56 0.0781788 0.0797549 -0.834675
1234.66 0.0793985 0.0796063 -0.108385
1234.76 0.0785422 0.0794606 -0.489705
1234.86 0.0774447 0.0793177 -1.02037
1234.96 0.0813462 0.0791777 1.14922
1235.06 0.0802997 0.0790404 0.672398
1235.16 0.0800553 0.0789058 0.611007
1235.26 0.0778856 0.0787739 -0.481803
1235.36 0.0763856 0.0786446 -1.23552
1235.46 0.0807851 0.0785178 1.20762
1235.56 0.0761353 0.0783935 -1.24315
1235.66 0.0770617 0.0782717 -0.657097
1235.76 0.0781667 0.0781522 0.00781638
1235.86 0.0784111 0.0780351 0.201016
1235.96 0.0786885 0.0779203 0.414809
1236.06 0.0748231 0.0778078 -1.63021
1236.16 0.0806946 0.0776975 1.55531
1236.26 0.0771728 0.0775894 -0.224882
1236.36 0.0747102 0.0774833 -1.52963
1236.46 0.0762185 0.0773794 -0.636673
1236.56 0.0785439 0.0772775 0.682129
1236.66 0.0793441 0.0771777 1.15522
1236.76 0.0728569 0.0770798 -2.39564
1236.86 0.0787636 0.0769838 0.954351
1236.96 0.0791694 0.0768897 1.2278
1237.06 0.0763269 0.0767975 -0.252039
1237.16 0.0767824 0.076707 0.0406375
1237.26 0.0785152 0.0766184 1.00195
1237.36 0.0741877 0.0765315 -1.30174
1237.46 0.0782588 0.0764463 0.986229
1237.56 0.0761198 0.0763628 -0.132672
1237.66 0.0739394 0.0762809 -1.29367
1237.76 0.0757449 0.0762007 -0.246679
1237.86 0.0761658 0.076122 0.0239267
1237.96 0.0767993 0.0760449 0.408493
1238.06 0.0764695 0.0759693 0.270793
1238.16 0.0767902 0.0758952 0.485078
1238.26 0.0768542 0.0758225 0.55643
1238.36 0.0758776 0.0757513 0.0689386
1238.46 0.0798095 0.0756814 2.20194
1238.56 0.0754411 0.075613 -0.0950927
1238.66 0.0788553 0.0755459 1.7618
1238.76 0.0750754 0.0754801 -0.223224
1238.86 0.0735467 0.0754156 -1.02907
1238.96 0.0759665 0.0753524 0.334594
1239.06 0.0710871 0.0752904 -2.36309
1239.16 0.0746521 0.0752297 -0.320638
1239.26 0.0757558 0.0751701 0.321099
1239.36 0.0761883 0.0751117 0.590874
1239.46 0.0757221 0.0750545 0.368133
1239.56 0.0763845 0.0749984 0.742347
1239.66 0.0727552 0.0749434 -1.20905
1239.76 0.0790179 0.0748894 2.22167
1239.86 0.0738257 0.0748366 -0.556874
1239.96 0.076508 0.0747848 0.942896
1240.06 0.0740982 0.074734 -0.351584
1240.16 0.0742207 0.0746842 -0.258272
1240.26 0.0735083 0.0746353 -0.622801
1240.36 0.0735957 0.0745875 -0.547012
1240.46 0.0763248 0.0745406 0.972095
1240.56 0.0719522 0.0744946 -1.40378
1240.66 0.0709153 0.0744495 -1.99586
1240.76 0.0740459 0.0744053 -0.199836
1240.86 0.0731708 0.074362 -0.659452
1240.96 0.0755388 0.0743195 0.670871
1241.06 0.0722965 0.0742778 -1.10671
1241.16 0.0741735 0.074237 -0.0347331
