# Data from DA_121011_E2.h5 stim 1
# Ratiometric estimator mono-exponential fit
# Fitted model Ca = baseline+delta*exp(-(t-t0)/tau)
# nobs = 186
# number of degrees of freedom = 183
# baseline length = 7
# fit started from point 21
# estimated baseline 0.0340468 and standard error 0.000323908
# estimated delta 0.0661704 and standard error 0.0038857
# estimated tau 0.808245 and standard error 0.0621
# residual sum of squares: 426.211
# RSS per degree of freedom: 2.32902
# Probability of observing a larger of equal RSS per DOF under the null hypothesis: 1.87922e-21
# WARNING: THE FIT IS NOT GOOD!

# rss per degree of freedom: 2.32902

# Time    Ca  Prediction  Residual
460.015 0.0427194 0.0340468 1.78188
460.115 0.0365823 0.0340468 0.54499
460.215 0.0403795 0.0340468 1.35227
460.315 0.0345733 0.0340468 0.114745
460.415 0.0392018 0.0340468 1.10992
460.515 0.035737 0.0340468 0.376517
460.615 0.0317424 0.0340468 -0.532416

462.115 0.0864156 0.100217 -2.10061
462.215 0.0997375 0.0925165 1.06265
462.315 0.0872701 0.085712 0.250015
462.415 0.0827329 0.0796994 0.488078
462.515 0.070545 0.0743864 -0.679309
462.615 0.0757021 0.0696918 0.984476
462.715 0.0683393 0.0655436 0.503468
462.815 0.0630051 0.0618781 0.208638
462.915 0.0639251 0.0586392 1.00159
463.015 0.0494876 0.0557772 -1.26126
463.115 0.0573388 0.0532483 0.801956
463.215 0.0498657 0.0510137 -0.234132
463.315 0.0490299 0.0490391 -0.0019101
463.415 0.0428027 0.0472944 -0.937063
463.515 0.0550991 0.0457527 1.87128
463.615 0.0435877 0.0443904 -0.168012
463.715 0.0529383 0.0431866 1.96439
463.815 0.0432577 0.042123 0.244188
463.915 0.0444597 0.0411831 0.69996
464.015 0.0390675 0.0403526 -0.285561
464.115 0.0366777 0.0396187 -0.676486
464.215 0.0393501 0.0389703 0.0840576
464.315 0.035235 0.0383973 -0.715812
464.415 0.0374386 0.037891 -0.0996331
464.515 0.0333823 0.0374437 -0.909774
464.615 0.0314399 0.0370483 -1.2985
464.715 0.032153 0.036699 -1.04966
464.815 0.0347485 0.0363904 -0.380182
464.915 0.038908 0.0361176 0.634003
465.015 0.0284555 0.0358767 -1.78507
465.115 0.0412324 0.0356637 1.28774
465.215 0.0295338 0.0354755 -1.42181
465.315 0.0283821 0.0353093 -1.70949
465.415 0.035935 0.0351624 0.180254
465.515 0.0315551 0.0350325 -0.832891
465.615 0.0269628 0.0349178 -1.94841
465.715 0.0362725 0.0348165 0.334247
465.815 0.0332939 0.0347269 -0.344004
465.915 0.0298403 0.0346477 -1.15293
466.015 0.0376198 0.0345778 0.696075
466.115 0.0371804 0.034516 0.622803
466.215 0.0331796 0.0344614 -0.307671
466.315 0.0326719 0.0344132 -0.412261
466.415 0.0361754 0.0343705 0.428092
466.515 0.0341005 0.0343329 -0.0543312
466.615 0.0230436 0.0342996 -2.85305
466.715 0.0336026 0.0342702 -0.158906
466.815 0.0347236 0.0342442 0.111602
466.915 0.0366134 0.0342212 0.561588
467.015 0.0427032 0.0342009 1.89264
467.115 0.0270983 0.034183 -1.75786
467.215 0.0268946 0.0341671 -1.79988
467.315 0.0359029 0.0341531 0.411188
467.415 0.0323176 0.0341408 -0.436528
467.515 0.0359274 0.0341298 0.435361
467.615 0.0278449 0.0341202 -1.59842
467.715 0.0295275 0.0341116 -1.12512
467.815 0.0289933 0.0341041 -1.27672
467.915 0.0373041 0.0340974 0.770577
468.015 0.0322779 0.0340916 -0.43967
468.115 0.0321112 0.0340863 -0.487449
468.215 0.0278829 0.0340818 -1.55274
468.315 0.025835 0.0340777 -2.06223
468.415 0.0334436 0.0340741 -0.15422
468.515 0.0288718 0.0340709 -1.30449
468.615 0.0340753 0.0340681 0.00176713
468.715 0.0292518 0.0340656 -1.20462
468.815 0.0286553 0.0340635 -1.34755
468.915 0.0248112 0.0340615 -2.34008
469.015 0.0319523 0.0340598 -0.524781
469.115 0.0223997 0.0340583 -3.08762
469.215 0.0381018 0.034057 0.958519
469.315 0.0320579 0.0340558 -0.487642
469.415 0.0308333 0.0340547 -0.82795
469.515 0.0248619 0.0340538 -2.32226
469.615 0.0371745 0.034053 0.771542
469.715 0.0312645 0.0340523 -0.684184
469.815 0.031183 0.0340517 -0.726551
469.915 0.0333562 0.0340511 -0.173294
470.015 0.0365682 0.0340506 0.622063
470.115 0.023944 0.0340502 -2.72115
470.215 0.0361707 0.0340498 0.526923
470.315 0.0318434 0.0340494 -0.559345
470.415 0.041737 0.0340491 1.8388
470.515 0.0315869 0.0340489 -0.620993
470.615 0.0345912 0.0340486 0.131232
470.715 0.0317338 0.0340484 -0.591089
470.815 0.0287065 0.0340482 -1.37634
470.915 0.031376 0.0340481 -0.673971
471.015 0.0302434 0.0340479 -0.968645
471.115 0.0346199 0.0340478 0.142078
471.215 0.0333619 0.0340477 -0.168809
471.315 0.0351066 0.0340476 0.26502
471.415 0.0352801 0.0340475 0.307032
471.515 0.0273959 0.0340474 -1.73068
471.615 0.0283561 0.0340474 -1.50034
471.715 0.0311053 0.0340473 -0.739121
471.815 0.0270829 0.0340472 -1.83884
471.915 0.0318433 0.0340472 -0.558969
472.015 0.0328361 0.0340472 -0.310848
472.115 0.0241053 0.0340471 -2.67231
472.215 0.0282387 0.0340471 -1.5144
472.315 0.0301063 0.0340471 -1.02468
472.415 0.0269882 0.034047 -1.92294
472.515 0.0353801 0.034047 0.334434
472.615 0.0275727 0.034047 -1.71976
472.715 0.029708 0.034047 -1.10889
472.815 0.0271894 0.034047 -1.81103
472.915 0.0292098 0.0340469 -1.29602
473.015 0.0315082 0.0340469 -0.64237
473.115 0.0333637 0.0340469 -0.180484
473.215 0.0337819 0.0340469 -0.0665354
473.315 0.0325911 0.0340469 -0.379064
473.415 0.0281577 0.0340469 -1.52111
473.515 0.027518 0.0340469 -1.73922
473.615 0.0293918 0.0340469 -1.23828
473.715 0.0375213 0.0340469 0.868882
473.815 0.028041 0.0340469 -1.62144
473.915 0.025482 0.0340469 -2.35902
474.015 0.0279095 0.0340469 -1.63057
474.115 0.0316736 0.0340469 -0.629459
474.215 0.0285461 0.0340469 -1.44481
474.315 0.0298894 0.0340469 -1.12688
474.415 0.0333079 0.0340469 -0.191432
474.515 0.0256526 0.0340469 -2.27767
474.615 0.026924 0.0340469 -1.90987
474.715 0.0299282 0.0340469 -1.11179
474.815 0.0310565 0.0340469 -0.79797
474.915 0.0270097 0.0340468 -1.85485
475.015 0.0235425 0.0340468 -2.91511
475.115 0.0369576 0.0340468 0.742007
475.215 0.0473644 0.0340468 3.13363
475.315 0.049188 0.0340468 3.49659
475.415 0.0472217 0.0340468 3.08218
475.515 0.0527113 0.0340468 4.31967
475.615 0.0502199 0.0340468 3.7971
475.715 0.0468916 0.0340468 3.08408
475.815 0.0386757 0.0340468 1.1419
475.915 0.0485194 0.0340468 3.38181
476.015 0.0435357 0.0340468 2.27029
476.115 0.0402688 0.0340468 1.56504
476.215 0.0424857 0.0340468 2.07498
476.315 0.0375163 0.0340468 0.87813
476.415 0.0425235 0.0340468 2.06569
476.515 0.0427519 0.0340468 2.11906
476.615 0.0472756 0.0340468 3.20784
476.715 0.0441163 0.0340468 2.45775
476.815 0.0533265 0.0340468 4.42619
476.915 0.0415418 0.0340468 1.84483
477.015 0.0434815 0.0340468 2.31597
477.115 0.0440085 0.0340468 2.44445
477.215 0.0361716 0.0340468 0.545532
477.315 0.0403874 0.0340468 1.59484
477.415 0.0387429 0.0340468 1.19727
477.515 0.0391906 0.0340468 1.32155
477.615 0.0381305 0.0340468 1.04161
477.715 0.0497296 0.0340468 3.71104
477.815 0.0334802 0.0340468 -0.146123
477.915 0.0343673 0.0340468 0.0832888
478.015 0.0356041 0.0340468 0.404127
478.115 0.0410106 0.0340468 1.77259
478.215 0.0389207 0.0340468 1.2597
478.315 0.0394152 0.0340468 1.33862
478.415 0.0366879 0.0340468 0.689688
478.515 0.0415737 0.0340468 1.89644
478.615 0.0402537 0.0340468 1.56676
478.715 0.029747 0.0340468 -1.17502
478.815 0.03669 0.0340468 0.679978
478.915 0.0435105 0.0340468 2.37003
479.015 0.0426859 0.0340468 2.16666
479.115 0.0294938 0.0340468 -1.23486
479.215 0.0361004 0.0340468 0.542045
479.315 0.0439986 0.0340468 2.41035
479.415 0.0350474 0.0340468 0.264293
479.515 0.042859 0.0340468 2.24098
479.615 0.0318647 0.0340468 -0.591496
479.715 0.0350001 0.0340468 0.253445
479.815 0.0381051 0.0340468 1.0559
479.915 0.0384599 0.0340468 1.14547
