# Data from DA_121011_E2.h5 stim 2
# Ratiometric estimator mono-exponential fit
# Fitted model Ca = baseline+delta*exp(-(t-t0)/tau)
# nobs = 177
# number of degrees of freedom = 174
# baseline length = 7
# fit started from point 30
# estimated baseline 0.0423806 and standard error 0.000203824
# estimated delta 0.0523367 and standard error 0.00105707
# estimated tau 2.14881 and standard error 0.0657425
# residual sum of squares: 202.185
# RSS per degree of freedom: 1.16198
# Probability of observing a larger of equal RSS per DOF under the null hypothesis: 0.070574

# rss per degree of freedom: 1.16198

# Time    Ca  Prediction  Residual
780.645 0.0437447 0.0423806 0.694812
780.745 0.0375516 0.0423806 -2.56278
780.845 0.0378226 0.0423806 -2.40249
780.945 0.0416859 0.0423806 -0.353674
781.045 0.0361501 0.0423806 -3.33794
781.145 0.0376793 0.0423806 -2.50471
781.245 0.0394989 0.0423806 -1.52573

783.645 0.0938316 0.0947173 -0.322251
783.745 0.0900201 0.0923375 -0.856735
783.845 0.0944214 0.0900659 1.58309
783.945 0.0911982 0.0878976 1.22069
784.045 0.0867171 0.0858279 0.328985
784.145 0.0884401 0.0838523 1.72766
784.245 0.0814879 0.0819665 -0.186297
784.345 0.0833278 0.0801665 1.23633
784.445 0.0777207 0.0784483 -0.291612
784.545 0.0768184 0.0768083 0.00400988
784.645 0.0703566 0.0752428 -2.04165
784.745 0.0734048 0.0737485 -0.143323
784.845 0.0706023 0.0723222 -0.713463
784.945 0.0684566 0.0709607 -1.07042
785.045 0.0695855 0.0696612 -0.0320265
785.145 0.0704658 0.0684207 0.857523
785.245 0.0661435 0.0672366 -0.468812
785.345 0.0693811 0.0661064 1.40663
785.445 0.0612625 0.0650275 -1.68145
785.545 0.0623328 0.0639977 -0.744697
785.645 0.0580323 0.0630148 -2.26101
785.745 0.062105 0.0620765 0.0128236
785.845 0.0594142 0.0611809 -0.810158
785.945 0.061197 0.0603261 0.396784
786.045 0.0589322 0.0595101 -0.258881
786.145 0.0601546 0.0587312 0.644137
786.245 0.0573597 0.0579877 -0.287991
786.345 0.0576686 0.057278 0.180966
786.445 0.0570855 0.0566006 0.226348
786.545 0.0566739 0.055954 0.329353
786.645 0.0541415 0.0553368 -0.552217
786.745 0.056654 0.0547477 0.89237
786.845 0.0545618 0.0541853 0.177787
786.945 0.0489649 0.0536485 -2.27733
787.045 0.0519852 0.0531362 -0.550031
787.145 0.0548812 0.0526471 1.03895
787.245 0.0537133 0.0521803 0.720157
787.345 0.0515936 0.0517347 -0.0676126
787.445 0.0500941 0.0513093 -0.588107
787.545 0.0484473 0.0509033 -1.20941
787.645 0.0524589 0.0505158 0.921132
787.745 0.0497292 0.0501459 -0.201474
787.845 0.0506128 0.0497928 0.391912
787.945 0.0497262 0.0494557 0.131082
788.045 0.0509579 0.049134 0.871834
788.145 0.0458122 0.0488269 -1.52252
788.245 0.0475711 0.0485338 -0.477316
788.345 0.0499485 0.048254 0.827155
788.445 0.0493284 0.0479869 0.659113
788.545 0.0474737 0.047732 -0.127262
788.645 0.0509425 0.0474887 1.67216
788.745 0.044442 0.0472564 -1.40498
788.845 0.0489356 0.0470347 0.931628
788.945 0.0466582 0.0468231 -0.0822595
789.045 0.0474691 0.0466211 0.420429
789.145 0.0454797 0.0464282 -0.471671
789.245 0.0485685 0.0462442 1.14298
789.345 0.0461873 0.0460685 0.05925
789.445 0.0443578 0.0459008 -0.789329
789.545 0.0443221 0.0457407 -0.718668
789.645 0.0470315 0.045588 0.7193
789.745 0.0490252 0.0454421 1.77399
789.845 0.04468 0.0453029 -0.31396
789.945 0.0452817 0.04517 0.056075
790.045 0.0459119 0.0450432 0.444523
790.145 0.047548 0.0449221 1.30034
790.245 0.0433301 0.0448065 -0.764852
790.345 0.0460752 0.0446962 0.685449
790.445 0.0472573 0.0445909 1.34609
790.545 0.0472827 0.0444904 1.3917
790.645 0.0434952 0.0443945 -0.462471
790.745 0.0453032 0.0443029 0.510378
790.845 0.0449867 0.0442155 0.393543
790.945 0.0438551 0.0441321 -0.143632
791.045 0.0438774 0.0440524 -0.0885205
791.145 0.0477714 0.0439764 1.88933
791.245 0.046523 0.0439038 1.31802
791.345 0.0433495 0.0438346 -0.247232
791.445 0.0417252 0.0437685 -1.05778
791.545 0.0456317 0.0437054 0.963843
791.645 0.0411761 0.0436451 -1.28342
791.745 0.0492796 0.0435876 2.81169
791.845 0.0462498 0.0435327 1.32929
791.945 0.0422363 0.0434803 -0.640896
792.045 0.0436471 0.0434303 0.110783
792.145 0.0450194 0.0433826 0.835621
792.245 0.0420754 0.043337 -0.65292
792.345 0.0441969 0.0432935 0.458587
792.445 0.04187 0.043252 -0.724959
792.545 0.0422456 0.0432124 -0.504853
792.645 0.0437946 0.0431746 0.321134
792.745 0.0439843 0.0431385 0.429593
792.845 0.0434591 0.043104 0.181118
792.945 0.0448666 0.0430711 0.920373
793.045 0.0432868 0.0430397 0.127651
793.145 0.0437447 0.0430097 0.375926
793.245 0.0425525 0.0429811 -0.219795
793.345 0.0430228 0.0429538 0.0357814
793.445 0.0407477 0.0429278 -1.13407
793.545 0.042842 0.0429029 -0.0320573
793.645 0.0437807 0.0428791 0.458762
793.745 0.0397506 0.0428565 -1.65921
793.845 0.0439556 0.0428348 0.576019
793.945 0.0444426 0.0428142 0.827391
794.045 0.0426856 0.0427945 -0.0553259
794.145 0.0432407 0.0427756 0.238871
794.245 0.0419889 0.0427577 -0.404402
794.345 0.0448251 0.0427405 1.07461
794.445 0.0444739 0.0427242 0.908869
794.545 0.0403092 0.0427085 -1.26575
794.645 0.0439346 0.0426936 0.64029
794.745 0.0418117 0.0426794 -0.453559
794.845 0.043736 0.0426658 0.556439
794.945 0.0401634 0.0426528 -1.32191
795.045 0.044462 0.0426405 0.933202
795.145 0.0424163 0.0426286 -0.110074
795.245 0.0401945 0.0426174 -1.26369
795.345 0.0439976 0.0426066 0.717637
795.445 0.0417114 0.0425963 -0.463796
795.545 0.0451518 0.0425865 1.29222
795.645 0.0426488 0.0425771 0.0372375
795.745 0.0401328 0.0425682 -1.30554
795.845 0.0441188 0.0425597 0.813377
795.945 0.0443426 0.0425515 0.924087
796.045 0.0402003 0.0425438 -1.25024
796.145 0.0427689 0.0425363 0.122758
796.245 0.0442597 0.0425293 0.901189
796.345 0.045493 0.0425225 1.52736
796.445 0.0449372 0.042516 1.23129
796.545 0.0408097 0.0425099 -0.895343
796.645 0.044609 0.042504 1.06936
796.745 0.040474 0.0424984 -1.07521
796.845 0.0419546 0.042493 -0.286354
796.945 0.0429044 0.0424879 0.216829
797.045 0.0391244 0.042483 -1.78542
797.145 0.0416775 0.0424784 -0.414353
797.245 0.0459212 0.0424739 1.77435
797.345 0.045565 0.0424697 1.58828
797.445 0.039753 0.0424656 -1.43593
797.545 0.0409247 0.0424618 -0.80805
797.645 0.0405456 0.0424581 -1.0112
797.745 0.0409376 0.0424546 -0.795905
797.845 0.0424081 0.0424512 -0.0225295
797.945 0.0406403 0.042448 -0.961591
798.045 0.0399562 0.0424449 -1.31195
798.145 0.0404958 0.042442 -1.02639
798.245 0.0409186 0.0424392 -0.802689
798.345 0.0398421 0.0424365 -1.37747
798.445 0.0427902 0.042434 0.185173
798.545 0.0380032 0.0424316 -2.38996
798.645 0.0404434 0.0424292 -1.05354
798.745 0.042033 0.042427 -0.208976
798.845 0.0420572 0.0424249 -0.193197
798.945 0.041832 0.0424229 -0.308819
799.045 0.0427519 0.042421 0.173125
799.145 0.0468227 0.0424191 2.25699
799.245 0.0422954 0.0424174 -0.0643473
799.345 0.042659 0.0424157 0.127338
799.445 0.0465811 0.0424141 2.1411
799.545 0.0431741 0.0424126 0.399865
799.645 0.0411741 0.0424111 -0.645993
799.745 0.0444973 0.0424097 1.07977
799.845 0.0441975 0.0424084 0.931862
799.945 0.0446856 0.0424072 1.16149
800.045 0.0426461 0.0424059 0.124808
800.145 0.0416447 0.0424048 -0.401112
800.245 0.0436407 0.0424037 0.643289
800.345 0.0429915 0.0424026 0.308018
800.445 0.0475502 0.0424016 2.61278
800.545 0.0472928 0.0424007 2.46787
