# Data from DA_130201_E2.h5 stim 1
# Ratiometric estimator mono-exponential fit
# Fitted model Ca = baseline+delta*exp(-(t-t0)/tau)
# nobs = 178
# number of degrees of freedom = 175
# baseline length = 7
# fit started from point 29
# estimated baseline 0.0460509 and standard error 0.000461572
# estimated delta 0.0574638 and standard error 0.00245224
# estimated tau 2.15515 and standard error 0.137694
# residual sum of squares: 149.613
# RSS per degree of freedom: 0.854929
# Probability of observing a larger of equal RSS per DOF under the null hypothesis: 0.918148

# rss per degree of freedom: 0.854929

# Time    Ca  Prediction  Residual
2025.02 0.053241 0.0460509 1.52665
2025.12 0.0484014 0.0460509 0.51466
2025.21 0.0453177 0.0460509 -0.163641
2025.31 0.0550533 0.0460509 1.89015
2025.41 0.0469254 0.0460509 0.190817
2025.51 0.0462781 0.0460509 0.051232
2025.61 0.0430386 0.0460509 -0.707833

2027.91 0.113258 0.103515 1.43743
2028.01 0.0979831 0.100909 -0.460578
2028.11 0.0992341 0.098422 0.130631
2028.21 0.0975865 0.0960475 0.249496
2028.31 0.0944649 0.0937806 0.111749
2028.41 0.0977872 0.0916166 0.986053
2028.51 0.0877844 0.0895506 -0.302113
2028.61 0.0915435 0.0875783 0.654441
2028.71 0.0855387 0.0856954 -0.02736
2028.81 0.0787886 0.0838979 -0.918472
2028.91 0.0843282 0.0821819 0.370728
2029.01 0.0797501 0.0805437 -0.143486
2029.11 0.072884 0.0789798 -1.13019
2029.21 0.0760908 0.0774868 -0.250627
2029.31 0.0821431 0.0760615 1.09632
2029.41 0.0716326 0.0747008 -0.568954
2029.51 0.0726914 0.0734018 -0.131346
2029.61 0.071593 0.0721617 -0.106973
2029.71 0.0660601 0.0709779 -0.965373
2029.81 0.0647867 0.0698477 -0.993494
2029.91 0.0669953 0.0687687 -0.345305
2030.01 0.0692078 0.0677387 0.284439
2030.11 0.0619289 0.0667553 -0.980119
2030.21 0.0675103 0.0658166 0.337416
2030.31 0.0593118 0.0649204 -1.14311
2030.41 0.0598216 0.0640649 -0.867398
2030.51 0.0575301 0.0632481 -1.19718
2030.61 0.0711968 0.0624684 1.6779
2030.71 0.0538684 0.061724 -1.6618
2030.81 0.0531191 0.0610134 -1.68282
2030.91 0.0696632 0.060335 1.79881
2031.01 0.0638943 0.0596873 0.837985
2031.11 0.0650534 0.0590691 1.17679
2031.21 0.0705636 0.0584788 2.30189
2031.31 0.0617132 0.0579153 0.765083
2031.41 0.0556622 0.0573774 -0.372122
2031.51 0.0547789 0.0568639 -0.450369
2031.61 0.0529749 0.0563736 -0.732296
2031.71 0.0544174 0.0559056 -0.315581
2031.81 0.0507702 0.0554587 -1.02071
2031.91 0.055342 0.0550322 0.0652418
2032.01 0.0531009 0.054625 -0.325847
2032.11 0.0579884 0.0542362 0.785938
2032.21 0.0516891 0.0538651 -0.47582
2032.31 0.0543752 0.0535108 0.185015
2032.41 0.059038 0.0531726 1.21376
2032.51 0.0515036 0.0528497 -0.301191
2032.61 0.0614263 0.0525414 1.84204
2032.71 0.0594926 0.0522471 1.49302
2032.81 0.0575711 0.0519662 1.17051
2032.91 0.0568517 0.051698 1.07158
2033.01 0.0514565 0.051442 0.00315035
2033.11 0.0409803 0.0511975 -2.31426
2033.21 0.0547277 0.0509642 0.813936
2033.31 0.0467322 0.0507414 -0.897452
2033.41 0.0475131 0.0505288 -0.680809
2033.51 0.0532295 0.0503257 0.621733
2033.61 0.0538919 0.0501319 0.812722
2033.71 0.0565956 0.0499469 1.38918
2033.81 0.0458456 0.0497702 -0.892511
2033.91 0.0425312 0.0496016 -1.58378
2034.01 0.0451911 0.0494406 -0.951191
2034.11 0.0513272 0.0492869 0.459018
2034.21 0.0570753 0.0491402 1.64831
2034.31 0.0533032 0.0490001 0.942816
2034.41 0.0497035 0.0488664 0.185817
2034.51 0.0520927 0.0487388 0.722971
2034.61 0.053577 0.0486169 1.08589
2034.71 0.0523182 0.0485006 0.828161
2034.81 0.0532414 0.0483895 1.06079
2034.91 0.0492752 0.0482835 0.218534
2035.01 0.0481044 0.0481822 -0.0176663
2035.11 0.0439103 0.0480856 -0.964272
2035.21 0.0495963 0.0479933 0.358274
2035.31 0.0483239 0.0479053 0.0951689
2035.41 0.0457306 0.0478212 -0.473686
2035.51 0.0461866 0.0477409 -0.348165
2035.61 0.0435723 0.0476643 -0.942076
2035.71 0.0452414 0.0475912 -0.538364
2035.81 0.0422585 0.0475213 -1.22571
2035.91 0.0539418 0.0474547 1.38528
2036.01 0.0496967 0.047391 0.508118
2036.11 0.0517011 0.0473303 0.967482
2036.21 0.0496402 0.0472723 0.522291
2036.31 0.0459062 0.0472169 -0.301972
2036.41 0.046458 0.047164 -0.158426
2036.51 0.0424536 0.0471135 -1.09598
2036.61 0.0491996 0.0470654 0.483688
2036.71 0.0507213 0.0470194 0.811346
2036.81 0.0452456 0.0469755 -0.3952
2036.91 0.0501144 0.0469335 0.700092
2037.01 0.0547292 0.0468935 1.69998
2037.11 0.0416299 0.0468553 -1.20887
2037.21 0.0520415 0.0468189 1.13126
2037.31 0.0533313 0.046784 1.42661
2037.41 0.0434869 0.0467508 -0.750223
2037.51 0.0496521 0.0467191 0.653173
2037.61 0.0522775 0.0466888 1.22504
2037.71 0.0462909 0.0466599 -0.085237
2037.81 0.0447019 0.0466322 -0.441513
2037.91 0.0475654 0.0466059 0.219922
2038.01 0.0446964 0.0465807 -0.423375
2038.11 0.0482957 0.0465567 0.403922
2038.21 0.047911 0.0465338 0.305456
2038.31 0.0531601 0.0465119 1.42707
2038.41 0.0399252 0.046491 -1.54632
2038.51 0.0436911 0.046471 -0.641351
2038.61 0.0474799 0.046452 0.23265
2038.71 0.0453862 0.0464338 -0.244607
2038.81 0.0452318 0.0464164 -0.275435
2038.91 0.0503757 0.0463999 0.88825
2039.01 0.0454646 0.0463841 -0.212284
2039.11 0.0446891 0.046369 -0.391156
2039.21 0.0415266 0.0463545 -1.14486
2039.31 0.0451396 0.0463408 -0.283561
2039.41 0.0450316 0.0463276 -0.30347
2039.51 0.0464598 0.0463151 0.0336053
2039.61 0.0401447 0.0463031 -1.44716
2039.71 0.0408436 0.0462917 -1.30321
2039.81 0.0435944 0.0462808 -0.623552
2039.91 0.0490309 0.0462703 0.611257
2040.01 0.0477562 0.0462604 0.340899
2040.11 0.0458937 0.0462509 -0.0837596
2040.21 0.0453137 0.0462418 -0.217555
2040.31 0.0411005 0.0462332 -1.2287
2040.41 0.0488939 0.0462249 0.605126
2040.51 0.0500497 0.046217 0.873519
2040.61 0.0485806 0.0462095 0.542343
2040.71 0.0441429 0.0462023 -0.480121
2040.81 0.0364353 0.0461954 -2.36778
2040.91 0.0417847 0.0461889 -1.04341
2041.01 0.0479331 0.0461826 0.389128
2041.11 0.0489922 0.0461767 0.649019
2041.21 0.0551838 0.046171 2.03728
2041.31 0.0397793 0.0461655 -1.47597
2041.41 0.046702 0.0461603 0.122993
2041.51 0.046147 0.0461554 -0.00190505
2041.61 0.0482337 0.0461506 0.470728
2041.71 0.046502 0.0461461 0.0814727
2041.81 0.0435548 0.0461418 -0.609288
2041.91 0.046643 0.0461377 0.116669
2042.01 0.0477067 0.0461337 0.362396
2042.11 0.0453494 0.04613 -0.179682
2042.21 0.0425408 0.0461264 -0.836554
2042.31 0.0462232 0.046123 0.0238167
2042.41 0.0514326 0.0461197 1.15355
2042.51 0.0417123 0.0461166 -1.02275
2042.61 0.0468166 0.0461136 0.16053
2042.71 0.0478112 0.0461108 0.390777
2042.81 0.0393343 0.0461081 -1.59714
2042.91 0.0489578 0.0461055 0.647983
2043.01 0.0541352 0.046103 1.74614
2043.11 0.0500131 0.0461006 0.888079
2043.21 0.0419368 0.0460984 -0.983062
2043.31 0.0445502 0.0460962 -0.3657
2043.41 0.0474007 0.0460942 0.297956
2043.51 0.0421594 0.0460922 -0.930729
2043.61 0.041822 0.0460904 -1.02185
2043.71 0.0448499 0.0460886 -0.286974
2043.81 0.0483481 0.0460869 0.513815
2043.91 0.0471069 0.0460852 0.234716
2044.01 0.0437896 0.0460837 -0.533787
2044.11 0.0468393 0.0460822 0.174811
2044.21 0.0533728 0.0460808 1.61221
2044.31 0.0473189 0.0460794 0.281561
2044.41 0.043881 0.0460781 -0.518974
2044.51 0.0383651 0.0460769 -1.87854
2044.61 0.0430093 0.0460757 -0.719745
2044.71 0.0411763 0.0460746 -1.17513
2044.81 0.0428202 0.0460735 -0.768681
2044.91 0.0489111 0.0460725 0.64563
