# Data from DA_130201_E2.h5 stim 3
# Ratiometric estimator mono-exponential fit
# Fitted model Ca = baseline+delta*exp(-(t-t0)/tau)
# nobs = 165
# number of degrees of freedom = 162
# baseline length = 7
# fit started from point 42
# estimated baseline 0.0367198 and standard error 0.000254786
# estimated delta 0.0315362 and standard error 0.000611614
# estimated tau 3.54538 and standard error 0.140892
# residual sum of squares: 165.501
# RSS per degree of freedom: 1.02161
# Probability of observing a larger of equal RSS per DOF under the null hypothesis: 0.409009

# rss per degree of freedom: 1.02161

# Time    Ca  Prediction  Residual
2670.01 0.0355366 0.0367198 -0.753173
2670.11 0.0365016 0.0367198 -0.138519
2670.21 0.0340273 0.0367198 -1.7468
2670.31 0.0372284 0.0367198 0.319656
2670.41 0.0366296 0.0367198 -0.0575827
2670.51 0.0373054 0.0367198 0.371541
2670.61 0.0353597 0.0367198 -0.88191

2674.21 0.0657518 0.068256 -1.27004
2674.31 0.0698259 0.067379 1.23416
2674.41 0.0674554 0.0665263 0.471716
2674.51 0.0657853 0.0656973 0.0447158
2674.61 0.0663122 0.0648914 0.721299
2674.71 0.0654066 0.0641079 0.680463
2674.81 0.0648457 0.0633462 0.779705
2674.91 0.0615107 0.0626057 -0.590486
2675.01 0.0632874 0.0618857 0.731984
2675.11 0.0601465 0.0611858 -0.569796
2675.21 0.0603439 0.0605054 -0.0872109
2675.31 0.0584883 0.0598439 -0.73988
2675.41 0.0590526 0.0592008 -0.0791259
2675.51 0.0588093 0.0585755 0.127486
2675.61 0.0553466 0.0579677 -1.44844
2675.71 0.0571938 0.0573768 -0.100081
2675.81 0.0534245 0.0568023 -1.90345
2675.91 0.0571911 0.0562437 0.516241
2676.01 0.0599362 0.0557007 2.24697
2676.11 0.0541857 0.0551728 -0.555325
2676.21 0.0542919 0.0546596 -0.204612
2676.31 0.0543112 0.0541607 0.084163
2676.41 0.0552918 0.0536756 0.906577
2676.51 0.0519223 0.0532041 -0.721405
2676.61 0.0532649 0.0527456 0.290747
2676.71 0.0527018 0.0522999 0.226294
2676.81 0.0547662 0.0518666 1.61251
2676.91 0.0527852 0.0514454 0.758266
2677.01 0.050634 0.0510358 -0.22964
2677.11 0.0495407 0.0506377 -0.627129
2677.21 0.0491211 0.0502506 -0.64824
2677.31 0.0485653 0.0498743 -0.758717
2677.41 0.0501805 0.0495084 0.381919
2677.51 0.0485276 0.0491528 -0.366097
2677.61 0.0468761 0.048807 -1.14887
2677.71 0.0493357 0.0484708 0.501029
2677.81 0.0470483 0.048144 -0.653244
2677.91 0.0500445 0.0478263 1.27284
2678.01 0.0452775 0.0475174 -1.32815
2678.11 0.0432646 0.0472171 -2.38157
2678.21 0.0465095 0.0469251 -0.244531
2678.31 0.0461483 0.0466413 -0.294066
2678.41 0.0485187 0.0463654 1.26504
2678.51 0.0471318 0.0460971 0.604746
2678.61 0.0449648 0.0458363 -0.522295
2678.71 0.0455143 0.0455828 -0.0408173
2678.81 0.0479595 0.0453363 1.54149
2678.91 0.0436968 0.0450966 -0.837974
2679.01 0.0472955 0.0448637 1.43951
2679.11 0.0417176 0.0446372 -1.80756
2679.21 0.0459901 0.044417 0.937071
2679.31 0.0418496 0.0442029 -1.44606
2679.41 0.0422981 0.0439948 -1.05672
2679.51 0.043815 0.0437925 0.0136165
2679.61 0.0425925 0.0435958 -0.618888
2679.71 0.0423413 0.0434045 -0.645447
2679.81 0.0449597 0.0432186 1.05198
2679.91 0.043649 0.0430379 0.371318
2680.01 0.0408823 0.0428622 -1.2299
2680.11 0.0403618 0.0426913 -1.47133
2680.21 0.0452263 0.0425253 1.63409
2680.31 0.0423828 0.0423638 0.0117281
2680.41 0.0443291 0.0422068 1.2854
2680.51 0.0453181 0.0420542 1.96509
2680.61 0.0431165 0.0419059 0.739707
2680.71 0.0435904 0.0417616 1.11186
2680.81 0.0408153 0.0416214 -0.500565
2680.91 0.0434854 0.0414851 1.20519
2681.01 0.0397362 0.0413526 -1.0084
2681.11 0.0397528 0.0412237 -0.923405
2681.21 0.0398213 0.0410985 -0.781944
2681.31 0.0405465 0.0409767 -0.269914
2681.41 0.0384297 0.0408583 -1.52653
2681.51 0.0405515 0.0407432 -0.119574
2681.61 0.041118 0.0406313 0.298118
2681.71 0.0388426 0.0405225 -1.048
2681.81 0.042588 0.0404168 1.34293
2681.91 0.0388192 0.0403139 -0.946292
2682.01 0.0436859 0.040214 2.13385
2682.11 0.043688 0.0401168 2.15747
2682.21 0.0383248 0.0400223 -1.06671
2682.31 0.044947 0.0399305 3.06874
2682.41 0.0391414 0.0398412 -0.443079
2682.51 0.0395339 0.0397544 -0.137413
2682.61 0.0403018 0.03967 0.392922
2682.71 0.0393423 0.0395879 -0.154479
2682.81 0.0397302 0.0395082 0.138792
2682.91 0.0390141 0.0394306 -0.265834
2683.01 0.0388818 0.0393552 -0.295239
2683.11 0.0405669 0.0392819 0.809467
2683.21 0.0389178 0.0392107 -0.1835
2683.31 0.0391502 0.0391414 0.00548613
2683.41 0.0395899 0.0390741 0.316754
2683.51 0.0393431 0.0390086 0.210121
2683.61 0.0400815 0.0389449 0.715753
2683.71 0.0420783 0.0388831 1.97163
2683.81 0.0387642 0.0388229 -0.0374134
2683.91 0.0372739 0.0387644 -0.946422
2684.01 0.0391783 0.0387075 0.299029
2684.11 0.0366936 0.0386523 -1.25757
2684.21 0.0384199 0.0385985 -0.113807
2684.31 0.0351075 0.0385463 -2.26789
2684.41 0.0390537 0.0384955 0.354925
2684.51 0.0399742 0.0384461 0.965774
2684.61 0.0371479 0.0383981 -0.79581
2684.71 0.0364609 0.0383514 -1.22015
2684.81 0.0400809 0.038306 1.10767
2684.91 0.0378161 0.0382619 -0.279126
2685.01 0.0383179 0.038219 0.0626957
2685.11 0.037968 0.0381773 -0.13336
2685.21 0.0367574 0.0381368 -0.890962
2685.31 0.0384537 0.0380974 0.227331
2685.41 0.038565 0.0380591 0.322951
2685.51 0.0385628 0.0380218 0.350674
2685.61 0.0399922 0.0379856 1.26003
2685.71 0.0395186 0.0379504 0.998359
2685.81 0.0350221 0.0379162 -1.84719
2685.91 0.0378445 0.0378829 -0.0244482
2686.01 0.0377112 0.0378506 -0.0880389
2686.11 0.039093 0.0378191 0.814546
2686.21 0.0371767 0.0377885 -0.396616
2686.31 0.0379389 0.0377588 0.114235
2686.41 0.0374529 0.0377299 -0.176933
2686.51 0.0378046 0.0377018 0.0649065
2686.61 0.0409436 0.0376745 2.04849
2686.71 0.0368997 0.037648 -0.481066
2686.81 0.0395881 0.0376222 1.24436
2686.91 0.0359256 0.0375971 -1.08738
2687.01 0.0402932 0.0375727 1.6957
2687.11 0.0381581 0.037549 0.388745
2687.21 0.0370883 0.0375259 -0.283096
2687.31 0.0391553 0.0375035 1.05158
2687.41 0.0348584 0.0374817 -1.70273
2687.51 0.0397035 0.0374605 1.41957
2687.61 0.0396497 0.0374399 1.39609
2687.71 0.0359819 0.0374199 -0.926888
2687.81 0.0376948 0.0374004 0.186886
2687.91 0.0364757 0.0373815 -0.585884
2688.01 0.036258 0.0373631 -0.709821
2688.11 0.0377008 0.0373452 0.23001
2688.21 0.0380993 0.0373278 0.491987
2688.31 0.0340347 0.0373109 -2.11858
2688.41 0.0380285 0.0372944 0.469021
2688.51 0.0367562 0.0372785 -0.337492
2688.61 0.0357414 0.0372629 -0.988326
2688.71 0.0359779 0.0372478 -0.82567
2688.81 0.0406083 0.0372331 2.13128
2688.91 0.0375093 0.0372189 0.18723
2689.01 0.0365025 0.037205 -0.454699
2689.11 0.0369862 0.0371915 -0.131596
2689.21 0.0384118 0.0371784 0.78602
2689.31 0.0382641 0.0371656 0.694188
2689.41 0.0360129 0.0371532 -0.738509
2689.51 0.0383761 0.0371412 0.794683
2689.61 0.038066 0.0371295 0.593415
2689.71 0.0351373 0.0371181 -1.30178
2689.81 0.0379118 0.037107 0.516553
2689.91 0.0347493 0.0370962 -1.52149
