# Data from DA_121219_E7.h5 stim 1
# Ratiometric estimator mono-exponential fit
# Fitted model Ca = baseline+delta*exp(-(t-t0)/tau)
# nobs = 177
# number of degrees of freedom = 174
# baseline length = 7
# fit started from point 30
# estimated baseline 0.0409885 and standard error 0.00110734
# estimated delta 0.138189 and standard error 0.00995014
# estimated tau 1.80089 and standard error 0.154414
# residual sum of squares: 189.943
# RSS per degree of freedom: 1.09163
# Probability of observing a larger of equal RSS per DOF under the null hypothesis: 0.193429

# rss per degree of freedom: 1.09163

# Time    Ca  Prediction  Residual
1080.02 0.0741213 0.0409885 2.34845
1080.12 0.044468 0.0409885 0.309196
1080.21 0.0476537 0.0409885 0.53965
1080.31 0.057487 0.0409885 1.23142
1080.41 0.0322112 0.0409885 -0.830446
1080.51 0.0359595 0.0409885 -0.444531
1080.61 0.052032 0.0409885 0.928268

1083.01 0.166507 0.179178 -0.505761
1083.11 0.181913 0.171713 0.3771
1083.21 0.167696 0.164652 0.125675
1083.31 0.2155 0.157973 1.75349
1083.41 0.172418 0.151654 0.821404
1083.51 0.109777 0.145676 -1.90016
1083.61 0.156832 0.140022 0.718753
1083.71 0.124398 0.134672 -0.506915
1083.81 0.152816 0.129612 0.96589
1083.91 0.124484 0.124825 -0.0173242
1084.01 0.149261 0.120297 1.26283
1084.11 0.113164 0.116013 -0.148466
1084.21 0.132481 0.111961 0.954165
1084.31 0.0811862 0.108127 -1.86027
1084.41 0.113671 0.104501 0.51616
1084.51 0.0969505 0.10107 -0.246359
1084.61 0.102598 0.0978248 0.260076
1084.71 0.113193 0.0947548 1.08927
1084.81 0.0797568 0.0918507 -0.807905
1084.91 0.0804199 0.0891034 -0.584918
1085.01 0.069492 0.0865045 -1.21824
1085.11 0.090162 0.0840459 0.370223
1085.21 0.0876166 0.0817202 0.356726
1085.31 0.0893029 0.0795201 0.602088
1085.41 0.0693244 0.0774388 -0.568822
1085.51 0.0731072 0.07547 -0.16498
1085.61 0.0607891 0.0736075 -0.967321
1085.71 0.0574903 0.0718456 -1.12515
1085.81 0.0637786 0.0701789 -0.477849
1085.91 0.0763051 0.0686022 0.552345
1086.01 0.0751078 0.0671106 0.557036
1086.11 0.0565548 0.0656997 -0.730836
1086.21 0.0663921 0.0643649 0.150485
1086.31 0.0803854 0.0631022 1.18395
1086.41 0.0556165 0.0619078 -0.492148
1086.51 0.047963 0.0607778 -1.08279
1086.61 0.0583204 0.0597089 -0.111982
1086.71 0.0637117 0.0586977 0.370168
1086.81 0.0847014 0.0577412 1.83205
1086.91 0.0803781 0.0568363 1.67331
1087.01 0.0674618 0.0559803 0.834843
1087.11 0.0738239 0.0551705 1.25864
1087.21 0.0394347 0.0544045 -1.23723
1087.31 0.0484442 0.0536798 -0.427589
1087.41 0.0576918 0.0529943 0.360308
1087.51 0.0570089 0.0523458 0.375559
1087.61 0.0637641 0.0517323 0.907956
1087.71 0.0516001 0.051152 0.0382814
1087.81 0.0407953 0.050603 -0.871999
1087.91 0.0630551 0.0500837 0.994817
1088.01 0.0390436 0.0495924 -0.904171
1088.11 0.0539978 0.0491277 0.392174
1088.21 0.0629463 0.0486881 1.09275
1088.31 0.0362936 0.0482722 -1.05969
1088.41 0.0635647 0.0478788 1.1514
1088.51 0.0552483 0.0475066 0.605625
1088.61 0.0440974 0.0471545 -0.267791
1088.71 0.059833 0.0468215 1.01672
1088.81 0.040469 0.0465064 -0.559323
1088.91 0.0759324 0.0462083 2.03745
1089.01 0.0531248 0.0459264 0.587852
1089.11 0.0589887 0.0456597 1.04807
1089.21 0.0479911 0.0454074 0.21265
1089.31 0.0568727 0.0451687 0.969588
1089.41 0.0523384 0.0449429 0.615286
1089.51 0.032177 0.0447293 -1.11885
1089.61 0.0454183 0.0445272 0.0780251
1089.71 0.0331223 0.0443361 -1.0409
1089.81 0.0485136 0.0441553 0.379262
1089.91 0.0584498 0.0439842 1.19701
1090.01 0.0191268 0.0438224 -2.57074
1090.11 0.035022 0.0436693 -0.820164
1090.21 0.0661093 0.0435245 1.72971
1090.31 0.0272443 0.0433875 -1.59189
1090.41 0.0267604 0.043258 -1.65069
1090.51 0.0332614 0.0431354 -0.934262
1090.61 0.0466679 0.0430194 0.310094
1090.71 0.0439191 0.0429097 0.0894854
1090.81 0.0465061 0.0428059 0.342219
1090.91 0.0511126 0.0427078 0.679636
1091.01 0.028655 0.0426149 -1.36309
1091.11 0.0346386 0.042527 -0.736266
1091.21 0.0508372 0.0424439 0.675681
1091.31 0.0407878 0.0423653 -0.147677
1091.41 0.0471174 0.042291 0.41093
1091.51 0.0455461 0.0422206 0.292299
1091.61 0.056664 0.042154 1.14995
1091.71 0.0550084 0.0420911 1.06313
1091.81 0.041707 0.0420315 -0.0288138
1091.91 0.0271439 0.0419752 -1.45149
1092.01 0.0445283 0.0419219 0.237018
1092.11 0.0349849 0.0418715 -0.660431
1092.21 0.017776 0.0418238 -2.42198
1092.31 0.0401865 0.0417787 -0.145128
1092.41 0.0486661 0.041736 0.606892
1092.51 0.0426216 0.0416956 0.0836468
1092.61 0.0362011 0.0416574 -0.532925
1092.71 0.0363862 0.0416213 -0.478454
1092.81 0.0440751 0.0415871 0.217185
1092.91 0.0677222 0.0415548 2.10514
1093.01 0.0440609 0.0415242 0.227332
1093.11 0.0318335 0.0414952 -0.893227
1093.21 0.0534868 0.0414679 0.987311
1093.31 0.0330635 0.041442 -0.78317
1093.41 0.0536919 0.0414175 0.988409
1093.51 0.0436217 0.0413943 0.202149
1093.61 0.0456539 0.0413724 0.382584
1093.71 0.0398209 0.0413516 -0.13202
1093.81 0.0546937 0.041332 1.1225
1093.91 0.025244 0.0413135 -1.62846
1094.01 0.0312202 0.0412959 -1.00293
1094.11 0.0717929 0.0412793 2.37065
1094.21 0.0288563 0.0412636 -1.17893
1094.31 0.062951 0.0412487 1.72516
1094.41 0.0436686 0.0412347 0.223377
1094.51 0.0361148 0.0412214 -0.474726
1094.61 0.0201622 0.0412088 -2.09626
1094.71 0.0580433 0.0411969 1.38738
1094.81 0.0586497 0.0411856 1.43186
1094.91 0.0336051 0.041175 -0.710886
1095.01 0.0434708 0.0411649 0.20032
1095.11 0.0561018 0.0411554 1.26218
1095.21 0.0491807 0.0411464 0.692901
1095.31 0.0318473 0.0411378 -0.85279
1095.41 0.0353723 0.0411298 -0.54241
1095.51 0.0250611 0.0411221 -1.60177
1095.61 0.0487545 0.0411149 0.632863
1095.71 0.034699 0.0411081 -0.608736
1095.81 0.0225559 0.0411016 -1.85902
1095.91 0.0478368 0.0410955 0.581956
1096.01 0.0569579 0.0410897 1.34211
1096.11 0.0346491 0.0410843 -0.636889
1096.21 0.0352372 0.0410791 -0.570001
1096.31 0.0475762 0.0410742 0.591465
1096.41 0.05139 0.0410696 0.881558
1096.51 0.0421551 0.0410652 0.0986639
1096.61 0.0431688 0.041061 0.191467
1096.71 0.0536011 0.0410571 1.0886
1096.81 0.0424591 0.0410534 0.129779
1096.91 0.0446363 0.0410499 0.337549
1097.01 0.0347737 0.0410466 -0.585687
1097.11 0.04613 0.0410434 0.467208
1097.21 0.0504067 0.0410405 0.786656
1097.31 0.0301141 0.0410377 -1.09751
1097.41 0.00734672 0.041035 -3.89933
1097.51 0.0446426 0.0410325 0.335675
1097.61 0.03208 0.0410301 -0.888659
1097.71 0.0352365 0.0410279 -0.542377
1097.81 0.0525598 0.0410257 1.02029
1097.91 0.0561654 0.0410237 1.27365
1098.01 0.0571706 0.0410218 1.3131
1098.11 0.0669353 0.04102 2.10394
1098.21 0.0563888 0.0410183 1.33021
1098.31 0.0367807 0.0410167 -0.396709
1098.41 0.0367744 0.0410152 -0.41794
1098.51 0.0286495 0.0410137 -1.28197
1098.61 0.0417568 0.0410124 0.0666532
1098.71 0.0498229 0.0410111 0.711987
1098.81 0.0405745 0.0410099 -0.0408438
1098.91 0.035357 0.0410087 -0.546188
1099.01 0.0529641 0.0410076 1.01369
1099.11 0.0280097 0.0410066 -1.34053
1099.21 0.0319492 0.0410056 -0.916653
1099.31 0.0594375 0.0410047 1.4937
1099.41 0.0380324 0.0410038 -0.27725
1099.51 0.0431609 0.041003 0.194819
1099.61 0.0453665 0.0410022 0.389269
1099.71 0.0624596 0.0410014 1.80101
1099.81 0.0266235 0.0410007 -1.52254
1099.91 0.0435991 0.0410001 0.242515
