# Data from DA_121219_E7.h5 stim 2
# Ratiometric estimator mono-exponential fit
# Fitted model Ca = baseline+delta*exp(-(t-t0)/tau)
# nobs = 173
# number of degrees of freedom = 170
# baseline length = 7
# fit started from point 34
# estimated baseline 0.0408608 and standard error 0.000523249
# estimated delta 0.113225 and standard error 0.00382174
# estimated tau 1.89405 and standard error 0.0825595
# residual sum of squares: 160.333
# RSS per degree of freedom: 0.943133
# Probability of observing a larger of equal RSS per DOF under the null hypothesis: 0.690839

# rss per degree of freedom: 0.943133

# Time    Ca  Prediction  Residual
1580.02 0.0382019 0.0408608 -0.528997
1580.12 0.035927 0.0408608 -1.01128
1580.21 0.0383798 0.0408608 -0.498663
1580.31 0.0440178 0.0408608 0.608316
1580.41 0.0518183 0.0408608 2.05118
1580.51 0.0387052 0.0408608 -0.43174
1580.61 0.0435305 0.0408608 0.516108

1583.41 0.149588 0.154086 -0.434471
1583.51 0.141276 0.148263 -0.724825
1583.61 0.130125 0.14274 -1.35728
1583.71 0.140355 0.1375 0.295773
1583.81 0.131297 0.13253 -0.130915
1583.91 0.127098 0.127816 -0.0785516
1584.01 0.122249 0.123344 -0.126481
1584.11 0.120725 0.119102 0.191675
1584.21 0.119699 0.115078 0.539144
1584.31 0.123764 0.111262 1.44957
1584.41 0.127805 0.107641 2.28115
1584.51 0.10155 0.104207 -0.339195
1584.61 0.102263 0.100949 0.168927
1584.71 0.098121 0.0978589 0.0353651
1584.81 0.0995365 0.0949276 0.610761
1584.91 0.0952761 0.0921471 0.429257
1585.01 0.0891882 0.0895096 -0.0455681
1585.11 0.0865484 0.0870077 -0.0667443
1585.21 0.0876208 0.0846345 0.427947
1585.31 0.0852902 0.0823833 0.424717
1585.41 0.0812147 0.0802479 0.141501
1585.51 0.0805364 0.0782224 0.348993
1585.61 0.0709052 0.076301 -0.858096
1585.71 0.081026 0.0744784 0.968508
1585.81 0.0683722 0.0727495 -0.698671
1585.91 0.0851346 0.0711096 2.04346
1586.01 0.0621315 0.069554 -1.20844
1586.11 0.0656757 0.0680783 -0.399004
1586.21 0.0520312 0.0666786 -2.61145
1586.31 0.0636247 0.0653509 -0.284219
1586.41 0.0608641 0.0640914 -0.562704
1586.51 0.0606535 0.0628967 -0.379006
1586.61 0.0643533 0.0617635 0.430838
1586.71 0.0628006 0.0606885 0.358294
1586.81 0.0568977 0.0596688 -0.491775
1586.91 0.0518706 0.0587016 -1.25643
1587.01 0.0463233 0.0577841 -2.11536
1587.11 0.054817 0.0569138 -0.367959
1587.21 0.0486611 0.0560882 -1.33294
1587.31 0.0627684 0.0553051 1.26136
1587.41 0.059685 0.0545623 0.874855
1587.51 0.0662656 0.0538576 2.06015
1587.61 0.0525231 0.0531892 -0.11941
1587.71 0.0453027 0.0525552 -1.34893
1587.81 0.0509738 0.0519538 -0.176902
1587.91 0.0582518 0.0513833 1.22125
1588.01 0.051467 0.0508422 0.112991
1588.11 0.045892 0.0503289 -0.827563
1588.21 0.0520996 0.049842 0.398504
1588.31 0.0542885 0.0493801 0.877745
1588.41 0.0469403 0.048942 -0.378292
1588.51 0.0512401 0.0485264 0.488076
1588.61 0.0525131 0.0481322 0.787677
1588.71 0.0476431 0.0477582 -0.0212837
1588.81 0.0532307 0.0474035 1.08536
1588.91 0.0539812 0.047067 1.19844
1589.01 0.0479254 0.0467479 0.219808
1589.11 0.0531796 0.0464451 1.21044
1589.21 0.0451628 0.0461579 -0.193321
1589.31 0.0413982 0.0458855 -0.874826
1589.41 0.0439282 0.0456271 -0.335833
1589.51 0.0499239 0.045382 0.824214
1589.61 0.0417752 0.0451495 -0.679368
1589.71 0.0489349 0.0449289 0.733965
1589.81 0.0360643 0.0447197 -1.76773
1589.91 0.0421196 0.0445212 -0.479716
1590.01 0.0415116 0.044333 -0.548912
1590.11 0.0447331 0.0441544 0.112491
1590.21 0.043461 0.0439851 -0.10246
1590.31 0.0585433 0.0438244 2.56383
1590.41 0.0439755 0.043672 0.0573134
1590.51 0.0414162 0.0435274 -0.423017
1590.61 0.0441414 0.0433903 0.143045
1590.71 0.0405356 0.0432602 -0.520337
1590.81 0.0457699 0.0431368 0.497583
1590.91 0.0492084 0.0430197 1.15151
1591.01 0.0407586 0.0429087 -0.424233
1591.11 0.0347249 0.0428034 -1.71215
1591.21 0.0412206 0.0427035 -0.284729
1591.31 0.0383743 0.0426087 -0.856451
1591.41 0.0466656 0.0425188 0.799162
1591.51 0.0395965 0.0424336 -0.564361
1591.61 0.0456995 0.0423527 0.639869
1591.71 0.038563 0.042276 -0.748762
1591.81 0.0397111 0.0422032 -0.498974
1591.91 0.0486444 0.0421342 1.23018
1592.01 0.0449448 0.0420687 0.554192
1592.11 0.0374599 0.0420066 -0.917491
1592.21 0.0461757 0.0419476 0.802037
1592.31 0.035847 0.0418917 -1.25265
1592.41 0.0443771 0.0418387 0.499513
1592.51 0.0328474 0.0417884 -1.8722
1592.61 0.0384204 0.0417407 -0.664426
1592.71 0.0402919 0.0416955 -0.282188
1592.81 0.0403573 0.0416526 -0.254423
1592.91 0.0431257 0.0416118 0.299841
1593.01 0.0454976 0.0415732 0.740323
1593.11 0.0478632 0.0415366 1.22706
1593.21 0.0472454 0.0415018 1.06872
1593.31 0.0506097 0.0414689 1.65933
1593.41 0.0441334 0.0414376 0.509449
1593.51 0.0431769 0.0414079 0.338521
1593.61 0.0504751 0.0413798 1.7011
1593.71 0.0546999 0.0413531 2.43709
1593.81 0.0410249 0.0413278 -0.0609178
1593.91 0.0385361 0.0413038 -0.567056
1594.01 0.0458784 0.041281 0.871509
1594.11 0.0449568 0.0412594 0.722533
1594.21 0.0363253 0.0412389 -1.0041
1594.31 0.0388268 0.0412194 -0.482504
1594.41 0.0424033 0.041201 0.237281
1594.51 0.0362862 0.0411835 -0.987892
1594.61 0.0360071 0.0411669 -1.0537
1594.71 0.0399305 0.0411512 -0.246475
1594.81 0.0464404 0.0411362 1.028
1594.91 0.0454177 0.0411221 0.799015
1595.01 0.0385127 0.0411086 -0.523943
1595.11 0.0407928 0.0410959 -0.0605932
1595.21 0.039449 0.0410838 -0.331768
1595.31 0.0450601 0.0410723 0.767986
1595.41 0.0373888 0.0410615 -0.754458
1595.51 0.0422915 0.0410511 0.250509
1595.61 0.0398428 0.0410414 -0.246843
1595.71 0.0394824 0.0410321 -0.312496
1595.81 0.0448126 0.0410233 0.73152
1595.91 0.0476227 0.0410149 1.25625
1596.01 0.031987 0.041007 -1.91547
1596.11 0.0365108 0.0409995 -0.911973
1596.21 0.0459136 0.0409923 0.980044
1596.31 0.0390125 0.0409856 -0.396869
1596.41 0.03534 0.0409792 -1.15565
1596.51 0.0496317 0.0409731 1.64287
1596.61 0.0488629 0.0409673 1.48839
1596.71 0.0472243 0.0409618 1.18705
1596.81 0.0368292 0.0409566 -0.838588
1596.91 0.0412041 0.0409517 0.0501553
1597.01 0.0404143 0.040947 -0.105157
1597.11 0.0445625 0.0409426 0.71562
1597.21 0.0408583 0.0409384 -0.0162127
1597.31 0.0297734 0.0409344 -2.4463
1597.41 0.0367168 0.0409306 -0.86475
1597.51 0.0441801 0.040927 0.638607
1597.61 0.0399617 0.0409236 -0.191167
1597.71 0.0407488 0.0409204 -0.0340944
1597.81 0.0368927 0.0409173 -0.826341
1597.91 0.0311851 0.0409144 -2.06886
1598.01 0.0439478 0.0409117 0.601497
1598.11 0.0372058 0.040909 -0.766619
1598.21 0.0434369 0.0409066 0.500135
1598.31 0.0412117 0.0409042 0.0608955
1598.41 0.0479425 0.040902 1.33009
1598.51 0.0354453 0.0408999 -1.1435
1598.61 0.0439909 0.0408979 0.603731
1598.71 0.049966 0.040896 1.70563
1598.81 0.0308673 0.0408941 -2.20382
1598.91 0.043953 0.0408924 0.608742
1599.01 0.0380889 0.0408908 -0.573652
1599.11 0.0360424 0.0408893 -0.998434
1599.21 0.0476935 0.0408878 1.29445
1599.31 0.0422249 0.0408864 0.262405
1599.41 0.0386934 0.0408851 -0.434158
1599.51 0.0482672 0.0408839 1.38755
1599.61 0.0437751 0.0408827 0.575449
1599.71 0.0384857 0.0408815 -0.490016
1599.81 0.037929 0.0408805 -0.604743
1599.91 0.0399967 0.0408795 -0.177158
