# Data from DA_121219_E7.h5 stim 4
# Ratiometric estimator mono-exponential fit
# Fitted model Ca = baseline+delta*exp(-(t-t0)/tau)
# nobs = 155
# number of degrees of freedom = 152
# baseline length = 7
# fit started from point 52
# estimated baseline 0.0374321 and standard error 0.000513458
# estimated delta 0.0595404 and standard error 0.00118663
# estimated tau 3.69508 and standard error 0.15065
# residual sum of squares: 166.038
# RSS per degree of freedom: 1.09236
# Probability of observing a larger of equal RSS per DOF under the null hypothesis: 0.206228

# rss per degree of freedom: 1.09236

# Time    Ca  Prediction  Residual
2490.01 0.039023 0.0374321 0.579019
2490.11 0.0355942 0.0374321 -0.690205
2490.21 0.0419501 0.0374321 1.62314
2490.31 0.0416755 0.0374321 1.50846
2490.41 0.0386351 0.0374321 0.442046
2490.51 0.0395601 0.0374321 0.779378
2490.61 0.0403743 0.0374321 1.07545

2495.21 0.0976753 0.0969725 0.173764
2495.31 0.0995242 0.0953827 1.00591
2495.41 0.0931476 0.0938354 -0.171558
2495.51 0.0954338 0.0923295 0.772134
2495.61 0.0965362 0.0908637 1.38728
2495.71 0.0881208 0.0894371 -0.340575
2495.81 0.0866034 0.0880485 -0.380236
2495.91 0.0871578 0.0866971 0.120387
2496.01 0.0839567 0.0853817 -0.374567
2496.11 0.0797042 0.0841014 -1.2139
2496.21 0.0837049 0.0828554 0.225307
2496.31 0.0762282 0.0816426 -1.50623
2496.41 0.078477 0.0804621 -0.554119
2496.51 0.0780316 0.0793132 -0.354612
2496.61 0.0846672 0.078195 1.71749
2496.71 0.0720355 0.0771066 -1.44311
2496.81 0.0683521 0.0760473 -2.304
2496.91 0.0744794 0.0750163 -0.153424
2497.01 0.0817762 0.0740128 2.09616
2497.11 0.0766789 0.0730361 1.00418
2497.21 0.0740587 0.0720855 0.553842
2497.31 0.0748693 0.0711602 1.04788
2497.41 0.0713232 0.0702597 0.304042
2497.51 0.0659979 0.0693832 -1.02633
2497.61 0.062291 0.0685301 -1.91869
2497.71 0.0683517 0.0676998 0.194354
2497.81 0.059492 0.0668916 -2.32751
2497.91 0.0682586 0.066105 0.636162
2498.01 0.0691394 0.0653395 1.12576
2498.11 0.0670104 0.0645943 0.717258
2498.21 0.0681847 0.0638691 1.27509
2498.31 0.0624208 0.0631632 -0.228075
2498.41 0.0613081 0.0624762 -0.367533
2498.51 0.059646 0.0618075 -0.673456
2498.61 0.0630537 0.0611567 0.581911
2498.71 0.0588502 0.0605233 -0.52763
2498.81 0.0640013 0.0599067 1.24955
2498.91 0.0574352 0.0593067 -0.591011
2499.01 0.0589389 0.0587226 0.0691002
2499.11 0.0557274 0.0581541 -0.785337
2499.21 0.0613163 0.0576009 1.16246
2499.31 0.0605884 0.0570624 1.09661
2499.41 0.0531206 0.0565382 -1.14589
2499.51 0.0622418 0.0560281 1.91207
2499.61 0.0529659 0.0555316 -0.856483
2499.71 0.055725 0.0550483 0.217524
2499.81 0.0554461 0.054578 0.282083
2499.91 0.0549976 0.0541202 0.287256
2500.01 0.0490814 0.0536746 -1.5604
2500.11 0.0509619 0.0532409 -0.769074
2500.21 0.0610556 0.0528188 2.59576
2500.31 0.0498277 0.052408 -0.877606
2500.41 0.0510535 0.0520081 -0.316429
2500.51 0.0548785 0.051619 1.06317
2500.61 0.0480769 0.0512402 -1.07176
2500.71 0.0522475 0.0508715 0.454376
2500.81 0.0479374 0.0505127 -0.887745
2500.91 0.0551932 0.0501634 1.61563
2501.01 0.0453034 0.0498235 -1.57441
2501.11 0.0553794 0.0494926 1.92062
2501.21 0.0517438 0.0491706 0.835556
2501.31 0.0502537 0.0488572 0.471452
2501.41 0.0493858 0.0485521 0.282737
2501.51 0.0481806 0.0482552 -0.0259116
2501.61 0.0434961 0.0479663 -1.56114
2501.71 0.046237 0.047685 -0.500167
2501.81 0.0439752 0.0474112 -1.21692
2501.91 0.0485412 0.0471448 0.482615
2502.01 0.047663 0.0468855 0.271766
2502.11 0.0477288 0.0466331 0.374122
2502.21 0.0431448 0.0463874 -1.15879
2502.31 0.0481673 0.0461483 0.692526
2502.41 0.0476615 0.0459156 0.606346
2502.51 0.0438258 0.0456891 -0.652459
2502.61 0.0459704 0.0454686 0.172333
2502.71 0.049791 0.045254 1.55791
2502.81 0.0433838 0.0450452 -0.58938
2502.91 0.0417482 0.0448419 -1.13717
2503.01 0.0445765 0.0446441 -0.0233146
2503.11 0.048719 0.0444515 1.47818
2503.21 0.0467847 0.0442641 0.872666
2503.31 0.0393936 0.0440817 -1.6943
2503.41 0.045626 0.0439041 0.589978
2503.51 0.0437337 0.0437313 0.000851557
2503.61 0.0471147 0.0435631 1.23744
2503.71 0.0427121 0.0433994 -0.245528
2503.81 0.0471224 0.0432401 1.34805
2503.91 0.0443834 0.043085 0.457544
2504.01 0.0459224 0.0429341 1.04971
2504.11 0.0427955 0.0427872 0.00297333
2504.21 0.0416697 0.0426442 -0.352554
2504.31 0.0411546 0.0425051 -0.49255
2504.41 0.0439852 0.0423696 0.573872
2504.51 0.0444087 0.0422378 0.774427
2504.61 0.0467718 0.0421095 1.6099
2504.71 0.0398599 0.0419846 -0.766502
2504.81 0.0379333 0.041863 -1.46265
2504.91 0.0416302 0.0417447 -0.0405147
2505.01 0.0338467 0.0416296 -2.93943
2505.11 0.0423299 0.0415175 0.294039
2505.21 0.0443528 0.0414084 1.05551
2505.31 0.0388113 0.0413023 -0.92561
2505.41 0.0398683 0.0411989 -0.486728
2505.51 0.0453399 0.0410983 1.52422
2505.61 0.0401547 0.0410005 -0.308525
2505.71 0.0439271 0.0409052 1.0751
2505.81 0.0404286 0.0408125 -0.137846
2505.91 0.0398617 0.0407222 -0.318872
2506.01 0.0418547 0.0406344 0.434248
2506.11 0.0376803 0.0405489 -1.07596
2506.21 0.0442606 0.0404656 1.35657
2506.31 0.0381191 0.0403846 -0.836975
2506.41 0.0422984 0.0403058 0.71603
2506.51 0.0373309 0.0402291 -1.05646
2506.61 0.041624 0.0401544 0.529107
2506.71 0.0452013 0.0400817 1.81628
2506.81 0.0408221 0.040011 0.294239
2506.91 0.0422522 0.0399421 0.834292
2507.01 0.0391219 0.0398751 -0.276082
2507.11 0.0378488 0.0398099 -0.733168
2507.21 0.0436445 0.0397464 1.40021
2507.31 0.0385108 0.0396846 -0.438243
2507.41 0.0365196 0.0396244 -1.15505
2507.51 0.0405249 0.0395659 0.352893
2507.61 0.0368662 0.0395089 -0.992806
2507.71 0.0406716 0.0394535 0.439257
2507.81 0.0404449 0.0393995 0.379054
2507.91 0.0384724 0.039347 -0.324799
2508.01 0.0342089 0.0392959 -1.93754
2508.11 0.0387471 0.0392461 -0.18616
2508.21 0.0407369 0.0391977 0.563518
2508.31 0.0387008 0.0391505 -0.164307
2508.41 0.0397816 0.0391046 0.248195
2508.51 0.0420627 0.03906 1.09662
2508.61 0.0369538 0.0390165 -0.770352
2508.71 0.0419974 0.0389742 1.09347
2508.81 0.0309182 0.038933 -3.12548
2508.91 0.0371088 0.038893 -0.671405
2509.01 0.0348395 0.038854 -1.53131
2509.11 0.0359421 0.038816 -1.08035
2509.21 0.0407657 0.038779 0.725303
2509.31 0.0399521 0.0387431 0.436503
2509.41 0.0371807 0.0387081 -0.573533
2509.51 0.0380819 0.038674 -0.219316
2509.61 0.0369112 0.0386409 -0.643912
2509.71 0.0374693 0.0386086 -0.429472
2509.81 0.0360158 0.0385772 -0.967911
2509.91 0.036905 0.0385466 -0.614542
