# Data from DA_130128_E1.h5 stim 4
# Ratiometric estimator mono-exponential fit
# Fitted model Ca = baseline+delta*exp(-(t-t0)/tau)
# nobs = 157
# number of degrees of freedom = 154
# baseline length = 7
# fit started from point 50
# estimated baseline 0.0341591 and standard error 0.000648853
# estimated delta 0.0204927 and standard error 0.000731058
# estimated tau 6.68807 and standard error 0.600155
# residual sum of squares: 135.564
# RSS per degree of freedom: 0.880283
# Probability of observing a larger of equal RSS per DOF under the null hypothesis: 0.854799

# rss per degree of freedom: 0.880283

# Time    Ca  Prediction  Residual
1500.02 0.0362178 0.0341591 0.955656
1500.12 0.031519 0.0341591 -1.27237
1500.21 0.034935 0.0341591 0.364798
1500.31 0.0310931 0.0341591 -1.46216
1500.41 0.037628 0.0341591 1.60446
1500.51 0.0341221 0.0341591 -0.0174731
1500.61 0.0325894 0.0341591 -0.757093

1505.01 0.0525358 0.0546519 -0.862182
1505.11 0.0570256 0.0543477 1.08114
1505.21 0.0541604 0.0540481 0.0457797
1505.31 0.0535369 0.0537529 -0.0887658
1505.41 0.0572909 0.0534622 1.50155
1505.51 0.0541835 0.0531757 0.408279
1505.61 0.0501987 0.0528935 -1.11353
1505.71 0.0514807 0.0526154 -0.468742
1505.81 0.0523626 0.0523415 0.0087003
1505.91 0.0549453 0.0520717 1.14948
1506.01 0.0532321 0.0518058 0.573369
1506.11 0.053814 0.051544 0.924044
1506.21 0.0500082 0.051286 -0.53612
1506.31 0.0491914 0.0510318 -0.764366
1506.41 0.0522763 0.0507814 0.622355
1506.51 0.0521357 0.0505347 0.655956
1506.61 0.0513869 0.0502917 0.45013
1506.71 0.0496019 0.0500522 -0.189191
1506.81 0.0501684 0.0498164 0.147981
1506.91 0.0493231 0.049584 -0.109852
1507.01 0.049919 0.0493551 0.236399
1507.11 0.0497348 0.0491296 0.251271
1507.21 0.0450746 0.0489074 -1.63835
1507.31 0.0468487 0.0486885 -0.783298
1507.41 0.0478184 0.0484729 -0.273856
1507.51 0.0442941 0.0482605 -1.73219
1507.61 0.0481294 0.0480512 0.0332721
1507.71 0.050581 0.047845 1.12392
1507.81 0.0455409 0.0476419 -0.912871
1507.91 0.0473754 0.0474418 -0.0281891
1508.01 0.048639 0.0472447 0.586161
1508.11 0.0414763 0.0470505 -2.45192
1508.21 0.0452637 0.0468592 -0.686924
1508.31 0.0490368 0.0466707 0.994444
1508.41 0.0488509 0.046485 1.00678
1508.51 0.0494558 0.0463021 1.31801
1508.61 0.0414196 0.0461219 -2.0743
1508.71 0.0477308 0.0459443 0.75501
1508.81 0.0418615 0.0457694 -1.73752
1508.91 0.0476329 0.0455971 0.859968
1509.01 0.0461773 0.0454274 0.321906
1509.11 0.0447126 0.0452602 -0.237717
1509.21 0.0440185 0.0450954 -0.469234
1509.31 0.0474321 0.0449331 1.06654
1509.41 0.0461093 0.0447732 0.584634
1509.51 0.0440803 0.0446157 -0.232259
1509.61 0.0453386 0.0444605 0.385107
1509.71 0.0475059 0.0443076 1.3415
1509.81 0.0412373 0.044157 -1.30018
1509.91 0.0445948 0.0440086 0.255808
1510.01 0.0441513 0.0438625 0.126042
1510.11 0.042912 0.0437185 -0.357075
1510.21 0.042874 0.0435766 -0.313094
1510.31 0.0422168 0.0434368 -0.546858
1510.41 0.0440362 0.0432991 0.322502
1510.51 0.041843 0.0431635 -0.584166
1510.61 0.0438408 0.0430299 0.353906
1510.71 0.0408962 0.0428982 -0.896991
1510.81 0.0449049 0.0427685 0.937174
1510.91 0.0451233 0.0426408 1.06121
1511.01 0.0423901 0.0425149 -0.0550986
1511.11 0.0389514 0.0423909 -1.56443
1511.21 0.0429997 0.0422687 0.314295
1511.31 0.0432621 0.0421484 0.490879
1511.41 0.0397585 0.0420298 -1.02304
1511.51 0.0450456 0.041913 1.37132
1511.61 0.0456267 0.0417979 1.64875
1511.71 0.0419284 0.0416845 0.107535
1511.81 0.041385 0.0415729 -0.0841768
1511.91 0.0394898 0.0414628 -0.894232
1512.01 0.039238 0.0413544 -0.961484
1512.11 0.0396578 0.0412477 -0.711023
1512.21 0.0431899 0.0411425 0.895833
1512.31 0.0398931 0.0410388 -0.518194
1512.41 0.0399147 0.0409367 -0.465798
1512.51 0.041219 0.0408361 0.167993
1512.61 0.0428164 0.0407371 0.90116
1512.71 0.0389333 0.0406394 -0.7667
1512.81 0.0428327 0.0405433 1.0034
1512.91 0.03689 0.0404485 -1.66185
1513.01 0.0412917 0.0403552 0.411399
1513.11 0.0369231 0.0402632 -1.54975
1513.21 0.0388434 0.0401726 -0.59916
1513.31 0.0394709 0.0400834 -0.271287
1513.41 0.0403092 0.0399955 0.138442
1513.51 0.0422864 0.0399088 1.04368
1513.61 0.0384462 0.0398235 -0.630002
1513.71 0.0437685 0.0397395 1.77656
1513.81 0.0395305 0.0396566 -0.0570991
1513.91 0.036613 0.0395751 -1.35163
1514.01 0.0402463 0.0394947 0.339609
1514.11 0.040156 0.0394155 0.333163
1514.21 0.0410089 0.0393375 0.742794
1514.31 0.0391923 0.0392606 -0.0313211
1514.41 0.0371983 0.0391849 -0.911078
1514.51 0.0397196 0.0391103 0.276227
1514.61 0.040145 0.0390369 0.492954
1514.71 0.0434814 0.0389645 2.00811
1514.81 0.0412727 0.0388932 1.05705
1514.91 0.0389681 0.0388229 0.0638187
1515.01 0.0423777 0.0387537 1.60156
1515.11 0.0354623 0.0386855 -1.4961
1515.21 0.0392475 0.0386183 0.288342
1515.31 0.0407569 0.0385521 0.989361
1515.41 0.042599 0.0384869 1.82537
1515.51 0.0372558 0.0384227 -0.543948
1515.61 0.0344115 0.0383594 -1.84857
1515.71 0.041784 0.0382971 1.56986
1515.81 0.0365471 0.0382357 -0.767879
1515.91 0.0407334 0.0381752 1.14086
1516.01 0.0367083 0.0381156 -0.640903
1516.11 0.0374882 0.0380569 -0.265675
1516.21 0.0394103 0.037999 0.641512
1516.31 0.0376721 0.037942 -0.12358
1516.41 0.0414055 0.0378859 1.57088
1516.51 0.0383134 0.0378306 0.216909
1516.61 0.0391614 0.0377761 0.627392
1516.71 0.0368606 0.0377224 -0.396638
1516.81 0.0380892 0.0376696 0.191961
1516.91 0.0343582 0.0376175 -1.51881
1517.01 0.0343091 0.0375661 -1.5247
1517.11 0.0389893 0.0375156 0.666627
1517.21 0.0365623 0.0374658 -0.418116
1517.31 0.0364743 0.0374167 -0.440683
1517.41 0.0369983 0.0373683 -0.167761
1517.51 0.036551 0.0373207 -0.354863
1517.61 0.0356111 0.0372738 -0.776788
1517.71 0.0393266 0.0372276 0.947443
1517.81 0.0379 0.037182 0.328359
1517.91 0.0376062 0.0371372 0.214435
1518.01 0.0370432 0.037093 -0.023042
1518.11 0.0401589 0.0370494 1.42214
1518.21 0.0346474 0.0370065 -1.09804
1518.31 0.0329228 0.0369643 -1.89017
1518.41 0.0378729 0.0369226 0.433159
1518.51 0.0340541 0.0368816 -1.32968
1518.61 0.0356532 0.0368412 -0.548431
1518.71 0.0392898 0.0368014 1.13221
1518.81 0.0370924 0.0367622 0.150944
1518.91 0.0393486 0.0367236 1.19439
1519.01 0.0365153 0.0366855 -0.077742
1519.11 0.0357181 0.036648 -0.428951
1519.21 0.0376523 0.0366111 0.472984
1519.31 0.0384411 0.0365747 0.83782
1519.41 0.0361359 0.0365389 -0.185689
1519.51 0.0382798 0.0365035 0.814612
1519.61 0.0362378 0.0364687 -0.105375
1519.71 0.0381961 0.0364345 0.813277
1519.81 0.0324883 0.0364007 -1.85262
1519.91 0.0359727 0.0363674 -0.181067
