# Data from DA_130128_E1.h5 stim 1
# Ratiometric estimator mono-exponential fit
# Fitted model Ca = baseline+delta*exp(-(t-t0)/tau)
# nobs = 185
# number of degrees of freedom = 182
# baseline length = 7
# fit started from point 22
# estimated baseline 0.0528621 and standard error 0.000905524
# estimated delta 0.0772703 and standard error 0.00867
# estimated tau 1.35364 and standard error 0.192373
# residual sum of squares: 171.825
# RSS per degree of freedom: 0.944096
# Probability of observing a larger of equal RSS per DOF under the null hypothesis: 0.694431

# rss per degree of freedom: 0.944096

# Time    Ca  Prediction  Residual
370.015 0.0428405 0.0528621 -0.960182
370.115 0.0730384 0.0528621 1.60759
370.215 0.0585358 0.0528621 0.484369
370.315 0.08367 0.0528621 2.11332
370.415 0.0474038 0.0528621 -0.521209
370.515 0.0353561 0.0528621 -1.73842
370.615 0.0545951 0.0528621 0.153506

372.215 0.126648 0.130132 -0.189116
372.315 0.148808 0.12463 1.13196
372.415 0.123973 0.119519 0.24163
372.515 0.104391 0.114772 -0.613397
372.615 0.125741 0.110364 0.864405
372.715 0.0963248 0.106269 -0.629348
372.815 0.107354 0.102466 0.316111
372.915 0.0919398 0.0989332 -0.446236
373.015 0.104079 0.0956524 0.528972
373.115 0.0844859 0.0926052 -0.578536
373.215 0.103566 0.089775 0.868366
373.315 0.0872285 0.0871464 0.00553986
373.415 0.0999623 0.0847049 0.999977
373.515 0.0877821 0.0824373 0.376086
373.615 0.0614999 0.0803312 -1.53636
373.715 0.0593696 0.0783751 -1.63465
373.815 0.0651624 0.0765582 -0.929222
373.915 0.0643878 0.0748708 -0.833234
374.015 0.0768121 0.0733035 0.263839
374.115 0.0783398 0.0718478 0.507701
374.215 0.0628129 0.0704958 -0.634989
374.315 0.072193 0.0692401 0.23938
374.415 0.0926102 0.0680738 1.67117
374.515 0.0598294 0.0669905 -0.599469
374.615 0.0720719 0.0659844 0.489808
374.715 0.0679367 0.0650499 0.241826
374.815 0.0732656 0.064182 0.737169
374.915 0.0561422 0.0633759 -0.640898
375.015 0.0661766 0.0626272 0.304186
375.115 0.0497314 0.0619318 -1.09466
375.215 0.04947 0.0612859 -1.07538
375.315 0.0721907 0.060686 0.951454
375.415 0.0803149 0.0601289 1.54938
375.515 0.0517253 0.0596114 -0.744466
375.615 0.0525114 0.0591308 -0.591229
375.715 0.0525343 0.0586844 -0.572027
375.815 0.0755388 0.0582697 1.32461
375.915 0.0666521 0.0578846 0.729699
376.015 0.0688986 0.057527 0.926083
376.115 0.0453127 0.0571948 -1.16714
376.215 0.0646985 0.0568862 0.675299
376.315 0.0680265 0.0565997 0.913943
376.415 0.0589578 0.0563335 0.237305
376.515 0.0512748 0.0560863 -0.446833
376.615 0.076061 0.0558567 1.53335
376.715 0.0770783 0.0556434 1.64731
376.815 0.0834455 0.0554454 2.19896
376.915 0.0552712 0.0552614 0.000898583
377.015 0.0694232 0.0550906 1.18048
377.115 0.0557047 0.0549319 0.0693239
377.215 0.0865921 0.0547845 2.36893
377.315 0.0401681 0.0546476 -1.43547
377.415 0.0699227 0.0545204 1.27696
377.515 0.0466642 0.0544023 -0.769088
377.615 0.0538358 0.0542926 -0.0409722
377.715 0.0612825 0.0541908 0.649173
377.815 0.0531709 0.0540961 -0.0851152
377.915 0.0461095 0.0540083 -0.765854
378.015 0.0451348 0.0539266 -0.875673
378.115 0.055131 0.0538508 0.116658
378.215 0.0381973 0.0537804 -1.62835
378.315 0.0451208 0.053715 -0.892044
378.415 0.0380981 0.0536543 -1.59716
378.515 0.0575492 0.0535979 0.367848
378.615 0.0520468 0.0535455 -0.141998
378.715 0.0562845 0.0534968 0.258633
378.815 0.0625057 0.0534516 0.758902
378.915 0.0580694 0.0534096 0.453401
379.015 0.0573422 0.0533706 0.372194
379.115 0.0516085 0.0533344 -0.170255
379.215 0.0370098 0.0533008 -1.67584
379.315 0.0416115 0.0532695 -1.17142
379.415 0.0516317 0.0532405 -0.151629
379.515 0.042019 0.0532136 -1.13102
379.615 0.0645596 0.0531885 1.0515
379.715 0.0536944 0.0531653 0.0490887
379.815 0.0455438 0.0531437 -0.743877
379.915 0.0702051 0.0531236 1.48786
380.015 0.0510321 0.053105 -0.202534
380.115 0.0494361 0.0530877 -0.349596
380.215 0.0670014 0.0530717 1.21601
380.315 0.0486796 0.0530567 -0.452528
380.415 0.0483865 0.0530429 -0.463017
380.515 0.0791686 0.05303 2.19132
380.615 0.0634365 0.053018 0.904264
380.715 0.0462504 0.0530069 -0.660826
380.815 0.0486535 0.0529966 -0.432371
380.915 0.0481332 0.052987 -0.479395
381.015 0.0593865 0.0529781 0.585442
381.115 0.0514031 0.0529699 -0.151474
381.215 0.0602201 0.0529622 0.665365
381.315 0.0730907 0.0529551 1.73895
381.415 0.0511968 0.0529484 -0.171788
381.515 0.0522161 0.0529423 -0.0713724
381.615 0.0478608 0.0529366 -0.505498
381.715 0.0619175 0.0529313 0.779247
381.815 0.0523578 0.0529263 -0.0553507
381.915 0.075541 0.0529218 1.92963
382.015 0.0807869 0.0529175 2.21172
382.115 0.0798127 0.0529136 2.22507
382.215 0.0565665 0.0529099 0.342823
382.315 0.0637035 0.0529065 0.976323
382.415 0.0440965 0.0529033 -0.905305
382.515 0.0682934 0.0529004 1.39843
382.615 0.0496063 0.0528977 -0.315801
382.715 0.052515 0.0528951 -0.0360194
382.815 0.0588565 0.0528928 0.559431
382.915 0.0549569 0.0528906 0.211519
383.015 0.0463076 0.0528886 -0.642589
383.115 0.0574912 0.0528867 0.456541
383.215 0.0765486 0.0528849 1.96569
383.315 0.0558241 0.0528833 0.275679
383.415 0.064853 0.0528818 1.00767
383.515 0.0580015 0.0528804 0.496806
383.615 0.0519653 0.0528791 -0.0927503
383.715 0.0533098 0.0528779 0.0436054
383.815 0.0646684 0.0528767 1.09558
383.915 0.0499241 0.0528757 -0.295774
384.015 0.0515265 0.0528747 -0.134003
384.115 0.0526032 0.0528738 -0.0260242
384.215 0.0571204 0.052873 0.407531
384.315 0.051831 0.0528722 -0.105735
384.415 0.0684288 0.0528715 1.40475
384.515 0.0382567 0.0528708 -1.53654
384.615 0.0675904 0.0528702 1.29269
384.715 0.0522496 0.0528696 -0.0611824
384.815 0.0476307 0.0528691 -0.567122
384.915 0.0514095 0.0528686 -0.144656
385.015 0.0344896 0.0528681 -1.93616
385.115 0.0490879 0.0528677 -0.381973
385.215 0.048626 0.0528673 -0.437895
385.315 0.0532421 0.0528669 0.0381797
385.415 0.0590129 0.0528666 0.591306
385.515 0.0499076 0.0528663 -0.308381
385.615 0.054026 0.052866 0.116522
385.715 0.0437037 0.0528657 -0.960239
385.815 0.0407633 0.0528654 -1.31026
385.915 0.0576483 0.0528652 0.491967
386.015 0.0588315 0.052865 0.557253
386.115 0.0461307 0.0528648 -0.692178
386.215 0.0523119 0.0528646 -0.0556351
386.315 0.0516611 0.0528644 -0.119276
386.415 0.0579382 0.0528642 0.512871
386.515 0.055893 0.0528641 0.295306
386.615 0.0544999 0.0528639 0.158089
386.715 0.0589924 0.0528638 0.591987
386.815 0.0614995 0.0528637 0.818348
386.915 0.0371761 0.0528636 -1.77937
387.015 0.0573317 0.0528635 0.439302
387.115 0.0409778 0.0528634 -1.27658
387.215 0.0579077 0.0528633 0.487234
387.315 0.0414214 0.0528632 -1.253
387.415 0.0454432 0.0528631 -0.733853
387.515 0.0406901 0.052863 -1.21441
387.615 0.0413729 0.052863 -1.26942
387.715 0.0558975 0.0528629 0.317294
387.815 0.0362133 0.0528628 -1.91559
387.915 0.0582953 0.0528628 0.522495
388.015 0.0681812 0.0528627 1.40373
388.115 0.0427626 0.0528627 -1.12829
388.215 0.0503759 0.0528626 -0.253881
388.315 0.0478332 0.0528626 -0.534392
388.415 0.0549968 0.0528626 0.218599
388.515 0.0676118 0.0528625 1.38486
388.615 0.0519563 0.0528625 -0.0927447
388.715 0.0778294 0.0528625 2.28659
388.815 0.0513578 0.0528624 -0.151358
388.915 0.0496372 0.0528624 -0.346167
389.015 0.0594926 0.0528624 0.666966
389.115 0.0554533 0.0528624 0.26066
389.215 0.0446221 0.0528623 -0.891994
389.315 0.0390534 0.0528623 -1.53522
389.415 0.0507237 0.0528623 -0.225302
389.515 0.0351862 0.0528623 -2.03921
389.615 0.0644225 0.0528623 1.15287
389.715 0.047201 0.0528623 -0.585535
389.815 0.0516986 0.0528623 -0.119571
389.915 0.0442767 0.0528622 -0.926188
