# Data from DA_130128_E1.h5 stim 5
# Ratiometric estimator mono-exponential fit
# Fitted model Ca = baseline+delta*exp(-(t-t0)/tau)
# nobs = 160
# number of degrees of freedom = 157
# baseline length = 7
# fit started from point 47
# estimated baseline 0.0390377 and standard error 0.000621145
# estimated delta 0.0180354 and standard error 0.000663066
# estimated tau 8.32472 and standard error 0.716199
# residual sum of squares: 197.149
# RSS per degree of freedom: 1.25573
# Probability of observing a larger of equal RSS per DOF under the null hypothesis: 0.0164202

# rss per degree of freedom: 1.25573

# Time    Ca  Prediction  Residual
2120.01 0.0413229 0.0390377 1.22752
2120.11 0.0415738 0.0390377 1.34943
2120.21 0.0378979 0.0390377 -0.631802
2120.31 0.0382998 0.0390377 -0.399375
2120.41 0.0390841 0.0390377 0.0252354
2120.51 0.0417012 0.0390377 1.42237
2120.61 0.0416761 0.0390377 1.42922

2124.71 0.0533785 0.0570731 -1.82402
2124.81 0.0578695 0.0568578 0.483357
2124.91 0.0569837 0.056645 0.162193
2125.01 0.0538982 0.0564347 -1.22427
2125.11 0.0576085 0.056227 0.664001
2125.21 0.0573984 0.0560218 0.650453
2125.31 0.0583706 0.055819 1.21634
2125.41 0.0498008 0.0556186 -2.8763
2125.51 0.0549091 0.0554206 -0.247628
2125.61 0.0510017 0.055225 -2.08653
2125.71 0.0561039 0.0550317 0.515569
2125.81 0.0528326 0.0548407 -0.990802
2125.91 0.0561711 0.054652 0.715607
2126.01 0.0564123 0.0544656 0.914177
2126.11 0.0510801 0.0542814 -1.59854
2126.21 0.0507881 0.0540994 -1.63807
2126.31 0.0559207 0.0539195 0.962644
2126.41 0.0504202 0.0537418 -1.66819
2126.51 0.0526847 0.0535662 -0.429694
2126.61 0.0544993 0.0533928 0.533692
2126.71 0.0553789 0.0532214 1.04124
2126.81 0.051885 0.053052 -0.579011
2126.91 0.0530661 0.0528847 0.0889803
2127.01 0.0556629 0.0527193 1.40627
2127.11 0.0548176 0.0525559 1.08891
2127.21 0.0534272 0.0523945 0.500216
2127.31 0.0547607 0.052235 1.2125
2127.41 0.0487909 0.0520775 -1.64575
2127.51 0.0551842 0.0519218 1.60087
2127.61 0.0515821 0.0517679 -0.0920347
2127.71 0.0498291 0.0516159 -0.898544
2127.81 0.0515646 0.0514657 0.0490538
2127.91 0.0516628 0.0513173 0.170088
2128.01 0.0470298 0.0511707 -2.1064
2128.11 0.0480256 0.0510258 -1.50117
2128.21 0.0544482 0.0508827 1.73214
2128.31 0.0523642 0.0507412 0.801429
2128.41 0.0521837 0.0506015 0.789611
2128.51 0.0490575 0.0504634 -0.700292
2128.61 0.0489606 0.050327 -0.686966
2128.71 0.0477728 0.0501922 -1.22943
2128.81 0.0524432 0.050059 1.17189
2128.91 0.0478179 0.0499274 -1.06213
2129.01 0.0533328 0.0497974 1.74078
2129.11 0.0524512 0.0496689 1.37564
2129.21 0.052113 0.049542 1.25829
2129.31 0.0489848 0.0494165 -0.217493
2129.41 0.0482317 0.0492926 -0.547131
2129.51 0.0512466 0.0491702 1.02165
2129.61 0.0509219 0.0490492 0.948689
2129.71 0.0519126 0.0489296 1.45873
2129.81 0.0508745 0.0488115 1.02538
2129.91 0.0505345 0.0486948 0.918316
2130.01 0.0482748 0.0485795 -0.1555
2130.11 0.0501994 0.0484656 0.881432
2130.21 0.0491216 0.048353 0.389463
2130.31 0.0513966 0.0482418 1.59217
2130.41 0.0513991 0.0481319 1.60633
2130.51 0.0480176 0.0480233 -0.0028873
2130.61 0.0490219 0.047916 0.554021
2130.71 0.0500791 0.04781 1.13778
2130.81 0.0496384 0.0477052 0.972044
2130.91 0.0475855 0.0476017 -0.00821286
2131.01 0.0496619 0.0474995 1.07801
2131.11 0.0478118 0.0473984 0.210172
2131.21 0.0507351 0.0472986 1.68547
2131.31 0.0494791 0.0472 1.15023
2131.41 0.0441309 0.0471025 -1.5531
2131.51 0.0473503 0.0470062 0.176105
2131.61 0.0490163 0.0469111 1.05472
2131.71 0.0483441 0.046817 0.769834
2131.81 0.0468842 0.0467242 0.0823091
2131.91 0.0469449 0.0466324 0.160922
2132.01 0.0462982 0.0465417 -0.126952
2132.11 0.0423365 0.0464521 -2.1582
2132.21 0.0434122 0.0463636 -1.52679
2132.31 0.0450316 0.0462761 -0.651409
2132.41 0.0475336 0.0461897 0.694566
2132.51 0.0455506 0.0461043 -0.286451
2132.61 0.0448321 0.0460199 -0.609292
2132.71 0.0471187 0.0459365 0.610966
2132.81 0.0471996 0.0458541 0.685504
2132.91 0.047184 0.0457727 0.733707
2133.01 0.0480486 0.0456923 1.17735
2133.11 0.0491183 0.0456129 1.78651
2133.21 0.0443844 0.0455344 -0.595524
2133.31 0.0447892 0.0454568 -0.344807
2133.41 0.0480106 0.0453801 1.32792
2133.51 0.048561 0.0453044 1.64778
2133.61 0.0433599 0.0452296 -0.992354
2133.71 0.044686 0.0451556 -0.247281
2133.81 0.0449166 0.0450826 -0.0878214
2133.91 0.0455563 0.0450104 0.284255
2134.01 0.0451592 0.0449391 0.114482
2134.11 0.0411032 0.0448686 -2.01679
2134.21 0.0427494 0.044799 -1.08807
2134.31 0.0464951 0.0447302 0.925126
2134.41 0.0452942 0.0446622 0.328941
2134.51 0.0443953 0.0445951 -0.105297
2134.61 0.0483976 0.0445287 1.95976
2134.71 0.0472539 0.0444632 1.44388
2134.81 0.0373657 0.0443984 -3.82085
2134.91 0.0476528 0.0443344 1.65844
2135.01 0.0439839 0.0442711 -0.150488
2135.11 0.040698 0.0442086 -1.89782
2135.21 0.0439643 0.0441469 -0.0969231
2135.31 0.0434377 0.0440859 -0.342423
2135.41 0.0417826 0.0440256 -1.19642
2135.51 0.041 0.043966 -1.62637
2135.61 0.041463 0.0439072 -1.3045
2135.71 0.0430946 0.0438491 -0.402915
2135.81 0.0413885 0.0437916 -1.26174
2135.91 0.0412916 0.0437348 -1.31042
2136.01 0.0437874 0.0436788 0.0570235
2136.11 0.044921 0.0436233 0.682682
2136.21 0.0439357 0.0435686 0.19523
2136.31 0.0410518 0.0435145 -1.32284
2136.41 0.0455415 0.043461 1.07958
2136.51 0.0436425 0.0434082 0.121717
2136.61 0.0458789 0.043356 1.31514
2136.71 0.0417999 0.0433045 -0.801718
2136.81 0.0414321 0.0432535 -0.970108
2136.91 0.0433994 0.0432032 0.104114
2137.01 0.0439385 0.0431534 0.410142
2137.11 0.0416212 0.0431043 -0.790913
2137.21 0.0439908 0.0430557 0.495893
2137.31 0.045029 0.0430078 1.06387
2137.41 0.0403052 0.0429604 -1.42925
2137.51 0.0421644 0.0429135 -0.399232
2137.61 0.0413129 0.0428672 -0.835079
2137.71 0.0427623 0.0428215 -0.0313139
2137.81 0.0423733 0.0427763 -0.214759
2137.91 0.0410935 0.0427317 -0.879192
2138.01 0.0424795 0.0426876 -0.110691
2138.11 0.0397671 0.042644 -1.56383
2138.21 0.04152 0.0426009 -0.58256
2138.31 0.0432304 0.0425584 0.35182
2138.41 0.0430179 0.0425164 0.266619
2138.51 0.0409736 0.0424748 -0.809009
2138.61 0.0393765 0.0424338 -1.66371
2138.71 0.0392114 0.0423932 -1.75373
2138.81 0.0425249 0.0423532 0.0919457
2138.91 0.0453601 0.0423136 1.6054
2139.01 0.0424033 0.0422745 0.067646
2139.11 0.0398421 0.0422358 -1.29019
2139.21 0.0396745 0.0421976 -1.37464
2139.31 0.0416439 0.0421599 -0.271037
2139.41 0.0455892 0.0421226 1.80139
2139.51 0.0408828 0.0420858 -0.653033
2139.61 0.044419 0.0420494 1.24287
2139.71 0.0421008 0.0420134 0.046807
2139.81 0.0402818 0.0419779 -0.921068
2139.91 0.0430895 0.0419428 0.605476
