# Data from DA_130128_E1.h5 stim 3
# Ratiometric estimator mono-exponential fit
# Fitted model Ca = baseline+delta*exp(-(t-t0)/tau)
# nobs = 168
# number of degrees of freedom = 165
# baseline length = 7
# fit started from point 39
# estimated baseline 0.0362997 and standard error 0.000449918
# estimated delta 0.0224485 and standard error 0.000905034
# estimated tau 3.98821 and standard error 0.35594
# residual sum of squares: 181.995
# RSS per degree of freedom: 1.103
# Probability of observing a larger of equal RSS per DOF under the null hypothesis: 0.173197

# rss per degree of freedom: 1.103

# Time    Ca  Prediction  Residual
1100.02 0.0353874 0.0362997 -0.357783
1100.12 0.0372194 0.0362997 0.355739
1100.21 0.032036 0.0362997 -1.7073
1100.31 0.0326723 0.0362997 -1.44332
1100.41 0.0367771 0.0362997 0.185794
1100.51 0.0366615 0.0362997 0.141037
1100.61 0.0324218 0.0362997 -1.57535

1103.91 0.058997 0.0587483 0.0804106
1104.01 0.0570633 0.0581924 -0.377116
1104.11 0.0531164 0.0576503 -1.55412
1104.21 0.0526879 0.0571216 -1.49823
1104.31 0.0549792 0.056606 -0.556374
1104.41 0.0555167 0.0561032 -0.198367
1104.51 0.0545788 0.0556128 -0.348683
1104.61 0.0560757 0.0551346 0.312132
1104.71 0.0595142 0.0546682 1.60853
1104.81 0.0611971 0.0542133 2.29201
1104.91 0.0612665 0.0537698 2.43763
1105.01 0.0531853 0.0533372 -0.0517736
1105.11 0.0543286 0.0529153 0.4867
1105.21 0.0530149 0.0525038 0.176834
1105.31 0.048978 0.0521026 -1.12273
1105.41 0.0543363 0.0517113 0.883606
1105.51 0.0482547 0.0513297 -1.09343
1105.61 0.0510418 0.0509575 0.0293735
1105.71 0.0480862 0.0505945 -0.899109
1105.81 0.0524711 0.0502406 0.781191
1105.91 0.0431341 0.0498953 -2.46435
1106.01 0.0494085 0.0495587 -0.0524413
1106.11 0.0468393 0.0492304 -0.870302
1106.21 0.0519411 0.0489102 1.05769
1106.31 0.051663 0.0485979 1.06625
1106.41 0.0520257 0.0482934 1.3216
1106.51 0.0502975 0.0479964 0.813379
1106.61 0.047701 0.0477068 -0.00204531
1106.71 0.0479988 0.0474243 0.207299
1106.81 0.0458991 0.0471488 -0.459568
1106.91 0.0512169 0.0468802 1.53183
1107.01 0.0507895 0.0466182 1.44981
1107.11 0.0544782 0.0463627 2.76148
1107.21 0.0450119 0.0461135 -0.403896
1107.31 0.0459734 0.0458705 0.0370885
1107.41 0.0446459 0.0456335 -0.358652
1107.51 0.0446567 0.0454024 -0.276224
1107.61 0.0423015 0.045177 -1.07666
1107.71 0.0456372 0.0449572 0.252085
1107.81 0.0373669 0.0447428 -2.85161
1107.91 0.0429749 0.0445337 -0.576288
1108.01 0.0446547 0.0443298 0.119253
1108.11 0.0432145 0.044131 -0.336923
1108.21 0.0422442 0.0439371 -0.633714
1108.31 0.0453366 0.0437479 0.579542
1108.41 0.0475141 0.0435635 1.44344
1108.51 0.0421989 0.0433836 -0.439904
1108.61 0.0417135 0.0432082 -0.563196
1108.71 0.0400667 0.0430372 -1.12427
1108.81 0.041365 0.0428703 -0.568341
1108.91 0.045749 0.0427076 1.1048
1109.01 0.0477478 0.0425489 1.90313
1109.11 0.0421689 0.0423942 -0.0860904
1109.21 0.0392365 0.0422433 -1.14882
1109.31 0.0400994 0.0420961 -0.764606
1109.41 0.0410303 0.0419526 -0.3564
1109.51 0.0422732 0.0418126 0.171446
1109.61 0.0422119 0.0416761 0.205142
1109.71 0.039066 0.041543 -0.939813
1109.81 0.0389865 0.0414131 -0.934069
1109.91 0.0419218 0.0412865 0.241997
1110.01 0.0391735 0.041163 -0.770472
1110.11 0.0432323 0.0410426 0.823729
1110.21 0.0395506 0.0409252 -0.52974
1110.31 0.0416904 0.0408106 0.337421
1110.41 0.0466265 0.0406989 2.18268
1110.51 0.0383004 0.04059 -0.883806
1110.61 0.0444501 0.0404838 1.46984
1110.71 0.0376035 0.0403802 -1.0821
1110.81 0.0400081 0.0402791 -0.10446
1110.91 0.0397353 0.0401806 -0.170969
1111.01 0.0419701 0.0400845 0.709039
1111.11 0.0399266 0.0399908 -0.0246478
1111.21 0.0376209 0.0398994 -0.867445
1111.31 0.0386267 0.0398102 -0.459358
1111.41 0.0364498 0.0397233 -1.28368
1111.51 0.0398161 0.0396385 0.0685196
1111.61 0.0354797 0.0395558 -1.60998
1111.71 0.0400795 0.0394752 0.230425
1111.81 0.0389803 0.0393966 -0.16108
1111.91 0.0355767 0.0393199 -1.47809
1112.01 0.0415561 0.0392451 0.884967
1112.11 0.0355712 0.0391722 -1.41983
1112.21 0.0378804 0.0391011 -0.469039
1112.31 0.0385528 0.0390317 -0.185161
1112.41 0.0400496 0.038964 0.41881
1112.51 0.0365455 0.0388981 -0.932198
1112.61 0.0411878 0.0388337 0.887766
1112.71 0.03997 0.038771 0.458378
1112.81 0.0326942 0.0387098 -2.42291
1112.91 0.0355666 0.0386501 -1.23762
1113.01 0.0388133 0.0385919 0.0840235
1113.11 0.0381123 0.0385351 -0.16523
1113.21 0.043145 0.0384798 1.75246
1113.31 0.0391333 0.0384258 0.270881
1113.41 0.0372028 0.0383732 -0.452333
1113.51 0.044418 0.0383218 2.28162
1113.61 0.0400155 0.0382717 0.671812
1113.71 0.0396963 0.0382229 0.571742
1113.81 0.0334038 0.0381753 -1.94113
1113.91 0.0379605 0.0381289 -0.0653088
1114.01 0.0352167 0.0380836 -1.14602
1114.11 0.0382218 0.0380394 0.0710978
1114.21 0.0405538 0.0379963 0.998592
1114.31 0.040161 0.0379543 0.859655
1114.41 0.0388647 0.0379133 0.371952
1114.51 0.0386533 0.0378734 0.305404
1114.61 0.0356779 0.0378344 -0.8516
1114.71 0.0393254 0.0377964 0.59201
1114.81 0.0415982 0.0377593 1.45235
1114.91 0.0380914 0.0377232 0.140724
1115.01 0.0367908 0.037688 -0.348504
1115.11 0.0387455 0.0376536 0.424168
1115.21 0.0375171 0.0376201 -0.0412902
1115.31 0.0362974 0.0375874 -0.512701
1115.41 0.0368291 0.0375555 -0.285988
1115.51 0.0349178 0.0375244 -1.06215
1115.61 0.0392666 0.0374941 0.686749
1115.71 0.0336482 0.0374645 -1.53182
1115.81 0.0371639 0.0374356 -0.104384
1115.91 0.0407697 0.0374075 1.28728
1116.01 0.0425389 0.0373801 1.94214
1116.11 0.042654 0.0373533 2.03921
1116.21 0.0385016 0.0373272 0.461436
1116.31 0.0423966 0.0373018 1.93561
1116.41 0.0355204 0.037277 -0.690266
1116.51 0.0386826 0.0372528 0.552963
1116.61 0.0388748 0.0372292 0.637617
1116.71 0.0402298 0.0372062 1.15782
1116.81 0.0393712 0.0371837 0.849323
1116.91 0.034184 0.0371618 -1.19014
1117.01 0.0396759 0.0371405 0.973258
1117.11 0.0404692 0.0371197 1.28485
1117.21 0.0389878 0.0370994 0.729477
1117.31 0.0364588 0.0370796 -0.245877
1117.41 0.0400617 0.0370603 1.1489
1117.51 0.0338638 0.0370414 -1.28138
1117.61 0.0378741 0.0370231 0.331361
1117.71 0.0354945 0.0370051 -0.600226
1117.81 0.0393968 0.0369877 0.924422
1117.91 0.036483 0.0369706 -0.193115
1118.01 0.0366923 0.036954 -0.103685
1118.11 0.0319305 0.0369378 -2.07291
1118.21 0.0360583 0.036922 -0.342038
1118.31 0.0375309 0.0369066 0.242991
1118.41 0.0346284 0.0368916 -0.897181
1118.51 0.0356793 0.0368769 -0.479208
1118.61 0.0353758 0.0368626 -0.59759
1118.71 0.0381876 0.0368487 0.523204
1118.81 0.0424415 0.0368351 2.14992
1118.91 0.0383648 0.0368218 0.609007
1119.01 0.0388542 0.0368089 0.789197
1119.11 0.0315516 0.0367963 -2.12118
1119.21 0.0367338 0.036784 -0.0197777
1119.31 0.0400862 0.036772 1.25541
1119.41 0.0388449 0.0367603 0.809835
1119.51 0.0404738 0.0367489 1.43773
1119.61 0.0351594 0.0367378 -0.629093
1119.71 0.0351785 0.036727 -0.622527
1119.81 0.0367528 0.0367164 0.0144658
1119.91 0.0361017 0.0367061 -0.236888
