# Data from DA_121015_E3.h5 stim 2
# Ratiometric estimator mono-exponential fit
# Fitted model Ca = baseline+delta*exp(-(t-t0)/tau)
# nobs = 168
# number of degrees of freedom = 165
# baseline length = 7
# fit started from point 39
# estimated baseline 0.0460622 and standard error 0.000350198
# estimated delta 0.066416 and standard error 0.00112497
# estimated tau 3.21585 and standard error 0.0968943
# residual sum of squares: 163.751
# RSS per degree of freedom: 0.992428
# Probability of observing a larger of equal RSS per DOF under the null hypothesis: 0.51285

# rss per degree of freedom: 0.992428

# Time    Ca  Prediction  Residual
730.644 0.0466073 0.0460622 0.231292
730.744 0.045344 0.0460622 -0.305442
730.844 0.0434013 0.0460622 -1.14677
730.944 0.0398821 0.0460622 -2.68238
731.044 0.0452275 0.0460622 -0.353858
731.144 0.0430727 0.0460622 -1.28146
731.244 0.0420024 0.0460622 -1.77774

734.544 0.111213 0.112478 -0.348238
734.644 0.113047 0.110445 0.717899
734.744 0.11307 0.108473 1.25776
734.844 0.108662 0.106563 0.584529
734.944 0.106761 0.10471 0.584013
735.044 0.103456 0.102915 0.156461
735.144 0.0999907 0.101174 -0.349399
735.244 0.0957913 0.0994865 -1.10295
735.344 0.095224 0.0978508 -0.808356
735.444 0.095526 0.0962652 -0.226536
735.544 0.098532 0.0947281 1.14808
735.644 0.0917199 0.093238 -0.47029
735.744 0.0868278 0.0917936 -1.60678
735.844 0.0935361 0.0903935 0.96798
735.944 0.0872297 0.0890362 -0.581224
736.044 0.0877606 0.0877204 0.0127378
736.144 0.0904963 0.0864449 1.28349
736.244 0.0880848 0.0852085 0.918316
736.344 0.0860612 0.08401 0.660327
736.444 0.081669 0.0828481 -0.392568
736.544 0.0783072 0.0817218 -1.14628
736.644 0.0819369 0.08063 0.426974
736.744 0.0791752 0.0795716 -0.134331
736.844 0.078992 0.0785456 0.149771
736.944 0.0743618 0.0775511 -1.09726
737.044 0.0730985 0.076587 -1.22127
737.144 0.0720887 0.0756524 -1.25055
737.244 0.0745522 0.0747464 -0.0676164
737.344 0.0716326 0.0738682 -0.79026
737.444 0.0768727 0.0730168 1.33324
737.544 0.0778775 0.0721915 1.94125
737.644 0.0770476 0.0713915 1.92793
737.744 0.0674448 0.070616 -1.14775
737.844 0.0700017 0.0698642 0.0487023
737.944 0.0691968 0.0691355 0.0218653
738.044 0.0639418 0.068429 -1.6464
738.144 0.0698545 0.0677442 0.765149
738.244 0.0702 0.0670804 1.11983
738.344 0.0642274 0.0664368 -0.821739
738.444 0.0621897 0.065813 -1.35998
738.544 0.0656559 0.0652083 0.164618
738.644 0.0608723 0.0646221 -1.41419
738.744 0.0615224 0.0640538 -0.958709
738.844 0.0685125 0.063503 1.80391
738.944 0.0626988 0.062969 -0.101475
739.044 0.0606187 0.0624513 -0.702951
739.144 0.0619014 0.0619495 -0.0180867
739.244 0.0561725 0.0614631 -2.08684
739.344 0.0625142 0.0609916 0.571095
739.444 0.0624628 0.0605345 0.726593
739.544 0.060666 0.0600914 0.219268
739.644 0.0617129 0.0596618 0.779466
739.744 0.0566392 0.0592455 -1.03191
739.844 0.0568612 0.0588418 -0.772918
739.944 0.0585206 0.0584505 0.0272362
740.044 0.0587033 0.0580712 0.248778
740.144 0.0578919 0.0577035 0.0724736
740.244 0.0561172 0.0573471 -0.490497
740.344 0.05732 0.0570016 0.123554
740.444 0.0556882 0.0566667 -0.389043
740.544 0.0588396 0.056342 0.97392
740.644 0.0576598 0.0560272 0.639657
740.744 0.0524497 0.0557221 -1.34338
740.844 0.0576674 0.0554264 0.877673
740.944 0.0594795 0.0551397 1.69874
741.044 0.0532668 0.0548617 -0.64206
741.144 0.0555354 0.0545923 0.374294
741.244 0.0529283 0.0543311 -0.563006
741.344 0.0567484 0.054078 1.03661
741.444 0.0548208 0.0538326 0.394762
741.544 0.0600829 0.0535946 2.47615
741.644 0.0557558 0.053364 0.943847
741.744 0.0550034 0.0531405 0.739775
741.844 0.0525043 0.0529237 -0.164756
741.944 0.0492624 0.0527137 -1.43595
742.044 0.0523645 0.05251 -0.0590021
742.144 0.0549933 0.0523126 1.07506
742.244 0.0498765 0.0521212 -0.924094
742.344 0.046666 0.0519357 -2.20214
742.444 0.0540197 0.0517559 0.909167
742.544 0.0523224 0.0515815 0.300174
742.644 0.0539067 0.0514126 1.01162
742.744 0.0505594 0.0512487 -0.2798
742.844 0.0540786 0.0510899 1.18364
742.944 0.0509216 0.050936 -0.00593869
743.044 0.0525181 0.0507868 0.704769
743.144 0.0465516 0.0506421 -1.72019
743.244 0.0507724 0.0505019 0.109821
743.344 0.0512442 0.050366 0.361144
743.444 0.0510861 0.0502342 0.347732
743.544 0.051 0.0501065 0.372632
743.644 0.0510963 0.0499826 0.449206
743.744 0.0481564 0.0498626 -0.723567
743.844 0.0467511 0.0497462 -1.26807
743.944 0.0516827 0.0496334 0.833543
744.044 0.052732 0.0495241 1.2819
744.144 0.0460446 0.0494181 -1.42485
744.244 0.0494012 0.0493154 0.0359291
744.344 0.0480097 0.0492158 -0.513532
744.444 0.0491566 0.0491192 0.015818
744.544 0.0493578 0.0490256 0.138424
744.644 0.0467925 0.0489349 -0.905934
744.744 0.0500866 0.0488469 0.512119
744.844 0.0449706 0.0487617 -1.6323
744.944 0.0510117 0.048679 0.960643
745.044 0.0484425 0.0485989 -0.0657851
745.144 0.0483737 0.0485212 -0.062442
745.244 0.0478255 0.0484459 -0.26023
745.344 0.0426123 0.0483729 -2.53735
745.444 0.0483744 0.0483022 0.0303313
745.544 0.0495574 0.0482336 0.535976
745.644 0.0469527 0.0481671 -0.507668
745.744 0.0469497 0.0481027 -0.48984
745.844 0.0524834 0.0480402 1.84199
745.944 0.050444 0.0479796 1.02005
746.044 0.0469821 0.0479209 -0.398598
746.144 0.047727 0.047864 -0.0596065
746.244 0.0463994 0.0478089 -0.597545
746.344 0.049143 0.0477554 0.58756
746.444 0.044921 0.0477035 -1.1779
746.544 0.0500376 0.0476533 0.987475
746.644 0.0492197 0.0476046 0.66255
746.744 0.0481219 0.0475573 0.238153
746.844 0.0456616 0.0475116 -0.797815
746.944 0.0485521 0.0474672 0.453403
747.044 0.0473701 0.0474242 -0.0227881
747.144 0.0501638 0.0473825 1.14101
747.244 0.0499182 0.047342 1.07109
747.344 0.0467319 0.0473029 -0.241764
747.444 0.0523652 0.0472649 2.08334
747.544 0.0469316 0.0472281 -0.126153
747.644 0.0509016 0.0471924 1.52582
747.744 0.0528204 0.0471578 2.2992
747.844 0.0466128 0.0471242 -0.217632
747.944 0.0469366 0.0470917 -0.0659588
748.044 0.0462114 0.0470602 -0.361283
748.144 0.051679 0.0470296 1.91937
748.244 0.0521947 0.047 2.10351
748.344 0.0469685 0.0469713 -0.00118827
748.444 0.0434201 0.0469435 -1.51476
748.544 0.0464983 0.0469165 -0.179097
748.644 0.0497102 0.0468903 1.17761
748.744 0.0478121 0.046865 0.401231
748.844 0.0450368 0.0468404 -0.780961
748.944 0.0456995 0.0468166 -0.468504
749.044 0.0462337 0.0467935 -0.238525
749.144 0.0489472 0.0467711 0.918605
749.244 0.0484423 0.0467494 0.708381
749.344 0.0488206 0.0467283 0.885235
749.444 0.0433026 0.0467079 -1.48211
749.544 0.0478749 0.0466882 0.504304
749.644 0.0450937 0.046669 -0.676714
749.744 0.0458106 0.0466504 -0.358617
749.844 0.0482277 0.0466324 0.673044
749.944 0.0475165 0.0466149 0.371492
750.044 0.0437336 0.046598 -1.23491
750.144 0.0477853 0.0465816 0.509578
750.244 0.0437156 0.0465657 -1.22765
750.344 0.0482949 0.0465503 0.735282
750.444 0.0457243 0.0465354 -0.346177
750.544 0.0462056 0.0465209 -0.134324
