# Data from DA_121015_E3.h5 stim 4
# Ratiometric estimator mono-exponential fit
# Fitted model Ca = baseline+delta*exp(-(t-t0)/tau)
# nobs = 171
# number of degrees of freedom = 168
# baseline length = 7
# fit started from point 36
# estimated baseline 0.0939105 and standard error 0.00053253
# estimated delta 0.0520937 and standard error 0.000903073
# estimated tau 9.59201 and standard error 0.391216
# residual sum of squares: 147.919
# RSS per degree of freedom: 0.880469
# Probability of observing a larger of equal RSS per DOF under the null hypothesis: 0.865579

# rss per degree of freedom: 0.880469

# Time    Ca  Prediction  Residual
1791.88 0.0935172 0.0939105 -0.15769
1792.08 0.0941385 0.0939105 0.0905712
1792.28 0.0953278 0.0939105 0.561844
1792.48 0.0992608 0.0939105 2.06163
1792.68 0.0935163 0.0939105 -0.158604
1792.88 0.0912525 0.0939105 -1.07899
1793.08 0.0916623 0.0939105 -0.92121

1799.08 0.142943 0.146004 -0.924433
1799.28 0.14735 0.144929 0.717335
1799.48 0.141419 0.143876 -0.755176
1799.68 0.140824 0.142845 -0.616708
1799.88 0.14212 0.141836 0.0863829
1800.08 0.136779 0.140847 -1.28269
1800.28 0.147497 0.139878 2.22367
1800.48 0.140337 0.13893 0.436311
1800.68 0.144499 0.138001 1.94409
1800.88 0.139186 0.137091 0.640267
1801.08 0.138582 0.1362 0.732629
1801.28 0.137011 0.135327 0.533179
1801.48 0.134656 0.134473 0.0587668
1801.68 0.130182 0.133636 -1.12707
1801.88 0.128644 0.132816 -1.35904
1802.08 0.132726 0.132013 0.231867
1802.28 0.134321 0.131227 0.985632
1802.48 0.126776 0.130457 -1.22339
1802.68 0.129887 0.129703 0.0599775
1802.88 0.135296 0.128964 2.01095
1803.08 0.127967 0.128241 -0.0893748
1803.28 0.128827 0.127532 0.426087
1803.48 0.12453 0.126839 -0.777099
1803.68 0.123658 0.126159 -0.832
1803.88 0.122992 0.125494 -0.82884
1804.08 0.122875 0.124842 -0.668371
1804.28 0.12092 0.124204 -1.11291
1804.48 0.122054 0.123579 -0.516754
1804.68 0.123949 0.122966 0.333454
1804.88 0.121752 0.122367 -0.207004
1805.08 0.120264 0.12178 -0.517463
1805.28 0.123616 0.121205 0.808093
1805.48 0.11929 0.120641 -0.466653
1805.68 0.121251 0.12009 0.399097
1805.88 0.119049 0.11955 -0.171757
1806.08 0.116225 0.119021 -0.975915
1806.28 0.117097 0.118502 -0.485891
1806.48 0.119443 0.117995 0.492227
1806.68 0.117334 0.117498 -0.0563398
1806.88 0.113219 0.117011 -1.37727
1807.08 0.118659 0.116535 0.731099
1807.28 0.118044 0.116068 0.687928
1807.48 0.11661 0.115611 0.35242
1807.68 0.114394 0.115163 -0.271994
1807.88 0.116403 0.114724 0.581552
1808.08 0.110697 0.114295 -1.29135
1808.28 0.115361 0.113874 0.519403
1808.48 0.118577 0.113462 1.77236
1808.68 0.112569 0.113059 -0.176025
1808.88 0.116924 0.112664 1.46451
1809.08 0.110102 0.112277 -0.787335
1809.28 0.111527 0.111898 -0.13276
1809.48 0.11083 0.111526 -0.251444
1809.68 0.110053 0.111163 -0.399608
1809.88 0.111724 0.110807 0.331687
1810.08 0.112869 0.110458 0.867319
1810.28 0.110636 0.110117 0.187578
1810.48 0.109445 0.109782 -0.123102
1810.68 0.107257 0.109455 -0.820382
1810.88 0.106605 0.109134 -0.929527
1811.08 0.11422 0.10882 1.93796
1811.28 0.110264 0.108512 0.632763
1811.48 0.105095 0.108211 -1.16347
1811.68 0.112533 0.107916 1.6593
1811.88 0.106592 0.107627 -0.382886
1812.08 0.11012 0.107344 1.02026
1812.28 0.110587 0.107067 1.2863
1812.48 0.103275 0.106795 -1.33359
1812.68 0.101598 0.106529 -1.86565
1812.88 0.104982 0.106269 -0.480387
1813.08 0.107713 0.106014 0.622246
1813.28 0.10954 0.105764 1.36571
1813.48 0.110001 0.10552 1.63566
1813.68 0.102209 0.10528 -1.15642
1813.88 0.103863 0.105045 -0.441753
1814.08 0.105537 0.104816 0.269462
1814.28 0.107463 0.104591 1.03897
1814.48 0.102705 0.10437 -0.630941
1814.68 0.103195 0.104154 -0.363249
1814.88 0.104002 0.103943 0.0224776
1815.08 0.0975095 0.103736 -2.4326
1815.28 0.101743 0.103533 -0.679323
1815.48 0.106477 0.103335 1.16747
1815.68 0.105686 0.10314 0.952136
1815.88 0.101427 0.10295 -0.582813
1816.08 0.101721 0.102763 -0.393734
1816.28 0.100981 0.102581 -0.604398
1816.48 0.102088 0.102402 -0.11962
1816.68 0.103028 0.102227 0.30539
1816.88 0.102678 0.102055 0.234786
1817.08 0.100207 0.101887 -0.637734
1817.28 0.0993929 0.101722 -0.900396
1817.48 0.101271 0.101561 -0.110031
1817.68 0.10348 0.101403 0.798684
1817.88 0.10101 0.101249 -0.090952
1818.08 0.103515 0.101097 0.92882
1818.28 0.100948 0.100949 -0.000293713
1818.48 0.0965331 0.100804 -1.65642
1818.68 0.107256 0.100661 2.40063
1818.88 0.0973254 0.100522 -1.23858
1819.08 0.0996869 0.100386 -0.270761
1819.28 0.100516 0.100252 0.101948
1819.48 0.101847 0.100121 0.665741
1819.68 0.100916 0.099993 0.353709
1819.88 0.0983519 0.0998675 -0.591873
1820.08 0.102569 0.0997446 1.07516
1820.28 0.0997011 0.0996242 0.0296744
1820.48 0.0973242 0.0995063 -0.867611
1820.68 0.0967311 0.0993908 -1.04633
1820.88 0.100226 0.0992778 0.366623
1821.08 0.102412 0.099167 1.21929
1821.28 0.10067 0.0990585 0.622329
1821.48 0.0978667 0.0989523 -0.4207
1821.68 0.102316 0.0988483 1.28686
1821.88 0.0990104 0.0987464 0.101308
1822.08 0.0996729 0.0986466 0.393121
1822.28 0.102723 0.0985489 1.60359
1822.48 0.103162 0.0984531 1.7909
1822.68 0.0914481 0.0983594 -2.78602
1822.88 0.0983576 0.0982676 0.0356751
1823.08 0.0973525 0.0981777 -0.324315
1823.28 0.101433 0.0980896 1.28234
1823.48 0.0955039 0.0980034 -0.966019
1823.68 0.0975213 0.097919 -0.155821
1823.88 0.101388 0.0978362 1.33574
1824.08 0.100105 0.0977552 0.910309
1824.28 0.0958259 0.0976759 -0.73456
1824.48 0.0953372 0.0975982 -0.89888
1824.68 0.0976868 0.0975221 0.0638942
1824.88 0.0952421 0.0974476 -0.863968
1825.08 0.0986954 0.0973746 0.509734
1825.28 0.096499 0.0973031 -0.312956
1825.48 0.0992215 0.0972331 0.768208
1825.68 0.0960443 0.0971645 -0.444623
1825.88 0.0942227 0.0970974 -1.14285
1826.08 0.0990574 0.0970316 0.78195
1826.28 0.0981193 0.0969672 0.4479
1826.48 0.0931959 0.0969042 -1.49349
1826.68 0.0968402 0.0968424 -0.000835276
1826.88 0.0983247 0.0967819 0.598802
1827.08 0.096241 0.0967226 -0.189103
1827.28 0.0979225 0.0966646 0.485636
1827.48 0.0962239 0.0966078 -0.151492
1827.68 0.092906 0.0965521 -1.46271
1827.88 0.0927192 0.0964976 -1.51172
1828.08 0.0943773 0.0964442 -0.827983
1828.28 0.0987528 0.0963919 0.914861
1828.48 0.0985877 0.0963407 0.858008
1828.68 0.0980367 0.0962906 0.677064
1828.88 0.0944245 0.0962415 -0.721924
1829.08 0.0988112 0.0961934 1.01012
1829.28 0.0973328 0.0961463 0.465027
1829.48 0.0970907 0.0961001 0.388208
1829.68 0.0940483 0.096055 -0.807487
1829.88 0.0969539 0.0960107 0.366529
1830.08 0.0998952 0.0959674 1.50776
1830.28 0.0948894 0.0959249 -0.410692
1830.48 0.0964669 0.0958834 0.224462
1830.68 0.0955474 0.0958426 -0.116096
1830.88 0.0943477 0.0958028 -0.579673
1831.08 0.096907 0.0957637 0.445014
1831.28 0.0939668 0.0957255 -0.707889
1831.48 0.0936051 0.095688 -0.834872
1831.68 0.0951129 0.0956514 -0.210608
