# Data from DA_121015_E3.h5 stim 3
# Ratiometric estimator mono-exponential fit
# Fitted model Ca = baseline+delta*exp(-(t-t0)/tau)
# nobs = 154
# number of degrees of freedom = 151
# baseline length = 7
# fit started from point 53
# estimated baseline 0.068179 and standard error 0.000676047
# estimated delta 0.0606593 and standard error 0.000905032
# estimated tau 5.67869 and standard error 0.206915
# residual sum of squares: 132.928
# RSS per degree of freedom: 0.880315
# Probability of observing a larger of equal RSS per DOF under the null hypothesis: 0.85218

# rss per degree of freedom: 0.880315

# Time    Ca  Prediction  Residual
1171.27 0.0687337 0.068179 0.23306
1171.37 0.067823 0.068179 -0.150913
1171.47 0.0666386 0.068179 -0.660695
1171.57 0.0665537 0.068179 -0.686483
1171.67 0.0668741 0.068179 -0.55849
1171.77 0.0672113 0.068179 -0.411762
1171.87 0.0691881 0.068179 0.426332

1176.57 0.12322 0.128838 -1.70987
1176.67 0.125681 0.127779 -0.61993
1176.77 0.126343 0.126739 -0.117253
1176.87 0.123811 0.125717 -0.570098
1176.97 0.127947 0.124713 0.955723
1177.07 0.125499 0.123726 0.531298
1177.17 0.123429 0.122756 0.201132
1177.27 0.131324 0.121803 2.69369
1177.37 0.122642 0.120867 0.544648
1177.47 0.119247 0.119948 -0.215802
1177.57 0.120914 0.119044 0.569271
1177.67 0.123656 0.118156 1.66869
1177.77 0.114419 0.117284 -0.900166
1177.87 0.112067 0.116427 -1.39895
1177.97 0.119752 0.115584 1.27795
1178.07 0.111946 0.114757 -0.902441
1178.17 0.115185 0.113944 0.3944
1178.27 0.115966 0.113145 0.879442
1178.37 0.11135 0.11236 -0.323498
1178.47 0.113608 0.111589 0.638606
1178.57 0.111476 0.110831 0.205354
1178.67 0.112439 0.110087 0.743706
1178.77 0.1056 0.109355 -1.26767
1178.87 0.114576 0.108636 1.88724
1178.97 0.1008 0.10793 -2.44527
1179.07 0.107129 0.107236 -0.0356932
1179.17 0.106808 0.106555 0.0835906
1179.27 0.104605 0.105885 -0.425154
1179.37 0.108596 0.105227 1.10075
1179.47 0.106436 0.10458 0.612811
1179.57 0.105577 0.103944 0.543027
1179.67 0.103565 0.10332 0.0832121
1179.77 0.102615 0.102707 -0.0308365
1179.87 0.0998813 0.102104 -0.767954
1179.97 0.0990879 0.101512 -0.836541
1180.07 0.102612 0.10093 0.568393
1180.17 0.0971552 0.100358 -1.11289
1180.27 0.0992424 0.0997966 -0.190581
1180.37 0.101507 0.0992447 0.780153
1180.47 0.101921 0.0987024 1.09252
1180.57 0.0967034 0.0981696 -0.519181
1180.67 0.0934311 0.0976461 -1.52905
1180.77 0.0939125 0.0971318 -1.13605
1180.87 0.0961727 0.0966264 -0.160902
1180.97 0.096015 0.0961298 -0.0401405
1181.07 0.0903432 0.0956419 -1.93233
1181.17 0.0958866 0.0951625 0.256452
1181.27 0.0915686 0.0946915 -1.13631
1181.37 0.0996884 0.0942287 1.92171
1181.47 0.096535 0.093774 0.981786
1181.57 0.094486 0.0933272 0.413799
1181.67 0.0908539 0.0928883 -0.732128
1181.77 0.0932747 0.092457 0.293181
1181.87 0.0939527 0.0920332 0.683036
1181.97 0.0876728 0.0916168 -1.44856
1182.07 0.0865245 0.0912077 -1.75272
1182.17 0.0918923 0.0908057 0.390303
1182.27 0.0913502 0.0904107 0.340027
1182.37 0.0877754 0.0900227 -0.8392
1182.47 0.0896753 0.0896414 0.0121501
1182.57 0.0866608 0.0892667 -0.984407
1182.67 0.0875734 0.0888986 -0.491604
1182.77 0.0912587 0.088537 0.996988
1182.87 0.0826705 0.0881816 -2.10342
1182.97 0.0849027 0.0878324 -1.09938
1183.07 0.0869367 0.0874894 -0.207459
1183.17 0.0887196 0.0871523 0.581215
1183.27 0.0864602 0.0868211 -0.135407
1183.37 0.0862801 0.0864957 -0.0801116
1183.47 0.0863542 0.086176 0.0662545
1183.57 0.0897683 0.0858618 1.439
1183.67 0.0909132 0.0855532 1.98966
1183.77 0.0834502 0.0852499 -0.684581
1183.87 0.0859304 0.0849519 0.365156
1183.97 0.0791802 0.0846591 -2.145
1184.07 0.0886912 0.0843715 1.60246
1184.17 0.0844364 0.0840888 0.134357
1184.27 0.0862393 0.0838111 0.905571
1184.37 0.0810886 0.0835382 -0.95923
1184.47 0.0834974 0.0832701 0.0858762
1184.57 0.0779614 0.0830067 -1.96728
1184.67 0.0841455 0.0827479 0.521239
1184.77 0.0822326 0.0824936 -0.0994979
1184.87 0.0838133 0.0822437 0.595641
1184.97 0.080874 0.0819982 -0.439362
1185.07 0.0837671 0.081757 0.771975
1185.17 0.0846029 0.08152 1.17374
1185.27 0.0825147 0.0812871 0.474112
1185.37 0.0811708 0.0810583 0.0437782
1185.47 0.0762839 0.0808335 -1.82937
1185.57 0.0826747 0.0806126 0.805013
1185.67 0.0778319 0.0803956 -1.02441
1185.77 0.0799662 0.0801823 -0.0847795
1185.87 0.0786342 0.0799728 -0.519167
1185.97 0.0833645 0.0797669 1.39027
1186.07 0.0834791 0.0795646 1.50134
1186.17 0.0812072 0.0793659 0.696579
1186.27 0.0806205 0.0791706 0.56269
1186.37 0.0766688 0.0789788 -0.926055
1186.47 0.0798351 0.0787902 0.412068
1186.57 0.0787269 0.078605 0.0481994
1186.67 0.0798932 0.078423 0.579865
1186.77 0.078916 0.0782442 0.2704
1186.87 0.0795516 0.0780685 0.579625
1186.97 0.0793626 0.0778959 0.580676
1187.07 0.0795618 0.0777263 0.709521
1187.17 0.0748125 0.0775596 -1.10456
1187.27 0.0823893 0.0773959 1.91006
1187.37 0.0778666 0.077235 0.252829
1187.47 0.0767912 0.0770769 -0.11563
1187.57 0.0771202 0.0769216 0.0791897
1187.67 0.0762868 0.076769 -0.192341
1187.77 0.07651 0.0766191 -0.0432674
1187.87 0.0741927 0.0764717 -0.928729
1187.97 0.0783701 0.076327 0.809859
1188.07 0.0767448 0.0761848 0.225535
1188.17 0.0756357 0.076045 -0.164551
1188.27 0.0749278 0.0759077 -0.396592
1188.37 0.0770449 0.0757728 0.510096
1188.47 0.0791306 0.0756402 1.38102
1188.57 0.0720475 0.07551 -1.43325
1188.67 0.0765855 0.075382 0.478922
1188.77 0.0785848 0.0752563 1.32274
1188.87 0.0744706 0.0751328 -0.270454
1188.97 0.0713807 0.0750114 -1.49724
1189.07 0.0738783 0.0748921 -0.41116
1189.17 0.0794265 0.0747749 1.83216
1189.27 0.0742131 0.0746598 -0.182094
1189.37 0.0760984 0.0745467 0.629334
1189.47 0.0749993 0.0744355 0.228998
1189.57 0.0730653 0.0743263 -0.508429
1189.67 0.0716107 0.074219 -1.07785
1189.77 0.075223 0.0741136 0.453607
1189.87 0.0729125 0.07401 -0.449743
1189.97 0.0729542 0.0739082 -0.394276
1190.07 0.0745123 0.0738082 0.286921
1190.17 0.0738814 0.0737099 0.0706966
1190.27 0.0737979 0.0736134 0.0749425
1190.37 0.0739999 0.0735185 0.195412
1190.47 0.0757211 0.0734253 0.923897
1190.57 0.0717475 0.0733338 -0.645463
1190.67 0.0746807 0.0732438 0.585354
1190.77 0.075088 0.0731554 0.781133
1190.87 0.072272 0.0730685 -0.326051
1190.97 0.070798 0.0729832 -0.913454
1191.07 0.0742529 0.0728993 0.547712
1191.17 0.0704338 0.0728169 -0.979813
