# Data from DA_121015_E3.h5 stim 1
# Ratiometric estimator mono-exponential fit
# Fitted model Ca = baseline+delta*exp(-(t-t0)/tau)
# nobs = 181
# number of degrees of freedom = 178
# baseline length = 7
# fit started from point 26
# estimated baseline 0.0302444 and standard error 0.000343892
# estimated delta 0.0639845 and standard error 0.0027467
# estimated tau 1.4512 and standard error 0.0837448
# residual sum of squares: 168.023
# RSS per degree of freedom: 0.943947
# Probability of observing a larger of equal RSS per DOF under the null hypothesis: 0.692695

# rss per degree of freedom: 0.943947

# Time    Ca  Prediction  Residual
410.015 0.0368938 0.0302444 1.58091
410.115 0.0275197 0.0302444 -0.69454
410.215 0.0307995 0.0302444 0.13758
410.315 0.0321593 0.0302444 0.466125
410.415 0.0334117 0.0302444 0.778889
410.515 0.0281102 0.0302444 -0.540179
410.615 0.0276572 0.0302444 -0.667269

412.615 0.0985795 0.0942289 0.680927
412.715 0.0929077 0.0899683 0.483334
412.815 0.0773005 0.0859915 -1.53951
412.915 0.0893585 0.0822794 1.19999
413.015 0.0787917 0.0788145 -0.0040805
413.115 0.0794265 0.0755803 0.689711
413.215 0.0679752 0.0725615 -0.898225
413.315 0.0757297 0.0697437 1.11919
413.415 0.065871 0.0671135 -0.239672
413.515 0.0692882 0.0646585 0.914411
413.615 0.0595771 0.0623669 -0.563361
413.715 0.0600393 0.060228 -0.0389832
413.815 0.0569984 0.0582314 -0.259313
413.915 0.0509271 0.0563678 -1.18523
414.015 0.0493371 0.0546283 -1.15309
414.115 0.0534219 0.0530047 0.0900203
414.215 0.0531009 0.0514891 0.341369
414.315 0.0513477 0.0500745 0.284481
414.415 0.0410228 0.048754 -1.79324
414.515 0.0509171 0.0475215 0.747504
414.615 0.046558 0.0463711 0.0412901
414.715 0.0399213 0.0452972 -1.27125
414.815 0.0422009 0.0442949 -0.494239
414.915 0.0412133 0.0433593 -0.500558
415.015 0.0478709 0.042486 1.24155
415.115 0.0393353 0.0416709 -0.555703
415.215 0.0430402 0.04091 0.503471
415.315 0.0412386 0.0401998 0.249484
415.415 0.0375715 0.0395369 -0.45862
415.515 0.0362774 0.0389181 -0.654407
415.615 0.0375477 0.0383406 -0.194611
415.715 0.040143 0.0378015 0.553091
415.815 0.0391526 0.0372982 0.445838
415.915 0.03979 0.0368285 0.70615
416.015 0.04484 0.0363901 1.96156
416.115 0.0396383 0.0359809 0.882681
416.215 0.0278885 0.0355989 -2.02856
416.315 0.0353097 0.0352424 0.0166037
416.415 0.040592 0.0349096 1.3554
416.515 0.0350056 0.0345989 0.0999948
416.615 0.0330062 0.034309 -0.328626
416.715 0.0332962 0.0340383 -0.185096
416.815 0.0341312 0.0337857 0.0863689
416.915 0.0336436 0.0335499 0.0237219
417.015 0.0364905 0.0333298 0.776525
417.115 0.0349515 0.0331243 0.455371
417.215 0.0340581 0.0329326 0.27644
417.315 0.040029 0.0327536 1.726
417.415 0.0317925 0.0325865 -0.199527
417.515 0.0384021 0.0324305 1.47896
417.615 0.0392678 0.032285 1.70325
417.715 0.0334451 0.0321491 0.321787
417.815 0.0298736 0.0320222 -0.559427
417.915 0.0263113 0.0319039 -1.47672
418.015 0.0334373 0.0317934 0.41164
418.115 0.0288519 0.0316902 -0.719218
418.215 0.0323769 0.0315939 0.199095
418.315 0.0317218 0.0315041 0.0548624
418.415 0.0326547 0.0314202 0.317993
418.515 0.0400847 0.0313419 2.11682
418.615 0.0328598 0.0312688 0.401299
418.715 0.0320283 0.0312006 0.209271
418.815 0.0319002 0.0311369 0.196359
418.915 0.0303455 0.0310775 -0.189879
419.015 0.0276452 0.031022 -0.906984
419.115 0.029746 0.0309702 -0.320174
419.215 0.0316591 0.0309219 0.188397
419.315 0.0305877 0.0308768 -0.0758157
419.415 0.0358254 0.0308347 1.28847
419.515 0.038587 0.0307954 1.93931
419.615 0.0301189 0.0307587 -0.169343
419.715 0.0286817 0.0307244 -0.536643
419.815 0.0254204 0.0306925 -1.43212
419.915 0.0269342 0.0306626 -0.996401
420.015 0.0271069 0.0306348 -0.931499
420.115 0.032809 0.0306088 0.577351
420.215 0.0290318 0.0305845 -0.415293
420.315 0.035667 0.0305619 1.29018
420.415 0.0277089 0.0305407 -0.755053
420.515 0.0322915 0.030521 0.458374
420.615 0.0329273 0.0305026 0.621695
420.715 0.0229727 0.0304854 -2.05737
420.815 0.0272741 0.0304693 -0.861446
420.915 0.0304293 0.0304544 -0.00656645
421.015 0.0353236 0.0304404 1.23931
421.115 0.0293476 0.0304273 -0.287928
421.215 0.0225585 0.0304152 -2.146
421.315 0.0248308 0.0304038 -1.52588
421.415 0.026726 0.0303932 -0.984466
421.515 0.0310075 0.0303833 0.164945
421.615 0.0345234 0.030374 1.05096
421.715 0.0260301 0.0303654 -1.16377
421.815 0.031818 0.0303573 0.385602
421.915 0.0327162 0.0303498 0.609173
422.015 0.0283216 0.0303428 -0.545514
422.115 0.0356282 0.0303362 1.32942
422.215 0.0272482 0.0303301 -0.831724
422.315 0.0353503 0.0303244 1.30199
422.415 0.0312523 0.0303191 0.24715
422.515 0.0357262 0.0303141 1.37434
422.615 0.0224795 0.0303095 -2.13944
422.715 0.0326176 0.0303051 0.599275
422.815 0.0287311 0.0303011 -0.417943
422.915 0.0311733 0.0302973 0.232355
423.015 0.0328604 0.0302938 0.655328
423.115 0.0246154 0.0302905 -1.57487
423.215 0.0326959 0.0302874 0.622419
423.315 0.0313917 0.0302846 0.29085
423.415 0.0321004 0.0302819 0.473376
423.515 0.0313622 0.0302794 0.27858
423.615 0.0314689 0.0302771 0.314237
423.715 0.0247547 0.0302749 -1.54017
423.815 0.0241277 0.0302729 -1.713
423.915 0.0336835 0.030271 0.888093
424.015 0.0311469 0.0302692 0.232515
424.115 0.0313301 0.0302675 0.283005
424.215 0.0307472 0.030266 0.128491
424.315 0.0320015 0.0302646 0.471522
424.415 0.0298316 0.0302632 -0.115488
424.515 0.0374314 0.030262 1.83797
424.615 0.0300701 0.0302608 -0.0496628
424.715 0.0323987 0.0302597 0.567501
424.815 0.0297829 0.0302587 -0.127063
424.915 0.0275416 0.0302577 -0.718929
425.015 0.0307272 0.0302568 0.124849
425.115 0.0322615 0.030256 0.53729
425.215 0.0291434 0.0302552 -0.298844
425.315 0.024618 0.0302545 -1.56266
425.415 0.0359868 0.0302538 1.49983
425.515 0.026602 0.0302532 -1.01674
425.615 0.0282442 0.0302526 -0.549004
425.715 0.0286051 0.0302521 -0.44611
425.815 0.0340887 0.0302516 0.980192
425.915 0.0281511 0.0302511 -0.57133
426.015 0.0369244 0.0302506 1.70206
426.115 0.0322972 0.0302502 0.554714
426.215 0.0322293 0.0302498 0.528948
426.315 0.0290034 0.0302495 -0.333101
426.415 0.0311395 0.0302491 0.237825
426.515 0.0267106 0.0302488 -0.976111
426.615 0.0313559 0.0302485 0.291242
426.715 0.0247533 0.0302482 -1.54429
426.815 0.0285949 0.030248 -0.450265
426.915 0.0340873 0.0302478 1.00837
427.015 0.0300163 0.0302475 -0.0616143
427.115 0.0275503 0.0302473 -0.738951
427.215 0.0338076 0.0302471 0.933853
427.315 0.0340029 0.0302469 0.990962
427.415 0.0328078 0.0302468 0.680616
427.515 0.0311568 0.0302466 0.247777
427.615 0.0361787 0.0302465 1.5414
427.715 0.0349175 0.0302463 1.22217
427.815 0.0318458 0.0302462 0.424393
427.915 0.0243085 0.0302461 -1.65326
428.015 0.0296868 0.030246 -0.151681
428.115 0.0319131 0.0302459 0.453583
428.215 0.0405248 0.0302458 2.58044
428.315 0.0231218 0.0302457 -2.01463
428.415 0.0272161 0.0302456 -0.829928
428.515 0.0205817 0.0302455 -2.74818
428.615 0.0307501 0.0302454 0.135924
428.715 0.0330962 0.0302454 0.765198
428.815 0.0309976 0.0302453 0.204512
428.915 0.0309139 0.0302452 0.182821
429.015 0.0308309 0.0302452 0.157897
429.115 0.0311443 0.0302451 0.239216
429.215 0.0269861 0.0302451 -0.910009
429.315 0.0246217 0.030245 -1.57128
429.415 0.0281646 0.030245 -0.57008
429.515 0.0318163 0.0302449 0.418482
429.615 0.0260763 0.0302449 -1.16025
429.715 0.0249476 0.0302449 -1.48224
429.815 0.037677 0.0302448 1.94702
429.915 0.0295948 0.0302448 -0.176984
